Generated using dynaphopy

1 atoms

1 atom types


        0.0000000000         2.8284271247 xlo xhi
        0.0000000000         2.4494897428 ylo yhi
        0.0000000000         2.3094010768 zlo zhi
        1.4142135624         1.4142135624         0.8164965809 xy xz yz

Masses

1       106.4200000000

Atoms

1 1         0.0000000000         0.0000000000         0.0000000000
