  64   64
   1   1
     4.821113081252334    -0.000000000000000    -0.000000000000000
     0.000000000000000     4.821113081252335    -0.000000000000000
     0.000000000000000    -0.000000000000000     4.821113081252334
   1   2
    -1.250210099414621    -0.000000000000000    -0.000000000000000
     0.000000000027028     0.060187760347384     0.019384239980599
     0.000000000019112     0.019384239980366     0.046481032809667
   1   3
    -0.116400451002348     0.000000000000000    -0.000000000000000
     0.000000000002436     0.002781596938541     0.000196124353910
     0.000000000001722     0.000196124353907     0.002642916077943
   1   4
    -1.250210099414620    -0.000000000000000    -0.000000000000000
     0.000000000027028     0.060187760347384     0.019384239980599
     0.000000000019112     0.019384239980366     0.046481032809667
   1   5
    -0.267411704604247    -0.567418917822854     0.016787244256642
    -0.567418917809800    -0.922610634462327    -0.009692119990642
     0.016787244251633    -0.009692119995882     0.046481032809005
   1   6
    -0.035694548584388    -0.034481274262897    -0.001003755146821
    -0.034481274260507     0.004120997371505    -0.000579518304184
    -0.001003686307114    -0.000579478559127     0.003213300272586
   1   7
    -0.035694548582951     0.034481274262897     0.001003755146821
     0.034481274262116     0.004120997370098    -0.000579518304225
     0.001003686308214    -0.000579478560122     0.003213300272557
   1   8
    -0.267411704581567     0.567418917822854    -0.016787244256642
     0.567418917782771    -0.922610634485492    -0.009692119989957
    -0.016787244242968    -0.009692120012262     0.046481032809490
   1   9
    -0.027013915047730    -0.051607340597133     0.000169848672791
    -0.051607340595954    -0.086604939016070    -0.000098062176958
     0.000169848672460    -0.000098062177496     0.002642916077936
   1  10
     0.024028770348024    -0.000000000000000    -0.000000000000000
    -0.000000000001609    -0.055602321560917     0.001159036608409
    -0.000000000000277     0.001158957118427     0.003213300272597
   1  11
    -0.027013915045628     0.051607340597133    -0.000169848672791
     0.051607340593519    -0.086604939018177    -0.000098062176951
    -0.000169848671608    -0.000098062178986     0.002642916077941
   1  12
     0.024028770348024     0.000000000000000    -0.000000000000000
    -0.000000000001609    -0.055602321560917     0.001159036608409
    -0.000000000000277     0.001158957118427     0.003213300272597
   1  13
    -0.267411704604247    -0.567418917822854     0.016787244256642
    -0.567418917809800    -0.922610634462327    -0.009692119990642
     0.016787244251633    -0.009692119995882     0.046481032809005
   1  14
    -0.267411704581567     0.567418917822854    -0.016787244256642
     0.567418917782771    -0.922610634485492    -0.009692119989957
    -0.016787244242968    -0.009692120012262     0.046481032809490
   1  15
    -0.035694548582951     0.034481274262897     0.001003755146821
     0.034481274262116     0.004120997370098    -0.000579518304225
     0.001003686308214    -0.000579478560122     0.003213300272557
   1  16
    -0.035694548584388    -0.034481274262897    -0.001003755146821
    -0.034481274260507     0.004120997371505    -0.000579518304184
    -0.001003686307114    -0.000579478559127     0.003213300272586
   1  17
    -0.267411704604247    -0.173312473598169    -0.540563434179354
    -0.173312473598350    -0.067287698008853    -0.312094444219244
    -0.540563434158959    -0.312094444210144    -0.808841903644469
   1  18
    -0.035694548584388    -0.012440107515120    -0.032174672091764
    -0.012440042611636     0.002949917931839    -0.000165439452602
    -0.032174695035690    -0.000165479197650     0.004384379712252
   1  19
    -0.035694548582951     0.012440107515120     0.032174672091764
     0.012440042613209     0.002949917931331    -0.000165439453916
     0.032174695036840    -0.000165479198009     0.004384379711323
   1  20
    -0.267411704581567     0.173312473598169     0.540563434179354
     0.173312473597510    -0.067287698015928    -0.312094444241313
     0.540563434130588    -0.312094444215147    -0.808841903660073
   1  21
    -0.017484619728345    -0.022953549939961    -0.016230610815196
    -0.022953614842070    -0.015260010923574    -0.027781363662295
    -0.016230656707723    -0.027781363661961     0.004384379711624
   1  22
    -0.002920277799004     0.000000000000000     0.000000000000000
    -0.000000000000000    -0.002920277799004     0.000000000000000
    -0.000000000000000     0.000000000000000    -0.002920277799004
   1  23
    -0.017484619726940     0.022953549939961     0.016230610815196
     0.022953614841359    -0.015260010924512    -0.027781363662957
     0.016230656707220    -0.027781363662624     0.004384379711155
   1  24
     0.031787195972661    -0.000000000000000    -0.000000000000000
     0.000000000000876     0.060403907287998     0.020235070626764
     0.000000000000620     0.020235070626521     0.046095551630767
   1  25
     0.004062222333198    -0.010513539778717     0.015944061276568
    -0.010513474875846    -0.036806852985457     0.027946803115560
     0.015944038329369     0.027946842859375     0.004384379711963
   1  26
     0.004062222333167     0.010513539778717    -0.015944061276568
     0.010513474874984    -0.036806852985887     0.027946803116211
    -0.015944038328219     0.027946842859072     0.004384379712424
   1  27
    -0.003918732527787     0.007839021320450    -0.000810031085187
     0.007839021319883    -0.012970454666954    -0.000467671665057
    -0.000810031084972    -0.000467671665363    -0.000054259069974
   1  28
    -0.003918732528083    -0.007839021320450     0.000810031085187
    -0.007839021320266    -0.012970454666634    -0.000467671665090
     0.000810031085064    -0.000467671665136    -0.000054259069998
   1  29
     0.032774305271111    -0.000000000000000     0.000000000000000
     0.000000000000839    -0.367473707889922     0.624188888460557
     0.000000000000594     0.624188888453069    -0.808841903638757
   1  30
     0.053249729459382    -0.012391399486591     0.017524085210556
    -0.012391399486201     0.038941373801967    -0.010117535313740
     0.017524085208866    -0.010117535313082     0.046095551630076
   1  31
    -0.017496315736234    -0.000000000000000    -0.000000000000000
     0.000000000000383     0.000607128541485     0.000935343330147
     0.000000000000271     0.000935343330136    -0.000054259069966
   1  32
     0.053249729459382     0.012391399486591    -0.017524085210556
     0.012391399485325     0.038941373801461    -0.010117535313024
    -0.017524085209485    -0.010117535313439     0.046095551630582
   1  33
    -0.027013915047730    -0.017042312000601    -0.048712483551784
    -0.017042312000518    -0.007335148203248    -0.028124165489871
    -0.048712483549978    -0.028124165488994    -0.076626874734885
   1  34
     0.024028770348024     0.000000000000000     0.000000000000000
    -0.000000000000797    -0.002593293671511    -0.017582564423164
    -0.000000000001424    -0.017582484932985    -0.049795727616809
   1  35
    -0.027013915045628     0.017042312000601     0.048712483551784
     0.017042312000509    -0.007335148203944    -0.028124165491859
     0.048712483547398    -0.028124165489486    -0.076626874736291
   1  36
     0.024028770348024     0.000000000000000     0.000000000000000
    -0.000000000000797    -0.002593293671511    -0.017582564423164
    -0.000000000001424    -0.017582484932985    -0.049795727616809
   1  37
     0.004062222333198     0.011527691871644    -0.015226947454490
     0.011527691871288     0.017373254342715     0.008791282211893
    -0.015226878614291     0.008791242467636    -0.049795727616209
   1  38
     0.004062222333167    -0.011527691871644     0.015226947454490
    -0.011527691870491     0.017373254343185     0.008791282211271
     0.015226878613095     0.008791242467969    -0.049795727616648
   1  39
    -0.003918732527787     0.001849302475634     0.007660710539874
     0.001849302475639    -0.001783341963590    -0.004422913292434
     0.007660710539180    -0.004422913292070    -0.011241371773339
   1  40
    -0.003918732528083    -0.001849302475634    -0.007660710539874
    -0.001849302475679    -0.001783341963514    -0.004422913292121
    -0.007660710539572    -0.004422913292016    -0.011241371773117
   1  41
     0.002504235217336    -0.000000000000000     0.000000000000000
     0.000000000000008    -0.036853298468829     0.056248330981730
     0.000000000000006     0.056248330981055    -0.076626874734371
   1  42
    -0.000715646681456     0.000000000000000     0.000000000000000
     0.000000000000041    -0.004986427810222     0.008845826584555
     0.000000000000029     0.008845826584449    -0.011241371773036
   1  43
    -0.001072941853908    -0.000000000000000     0.000000000000000
    -0.000000000000000    -0.001072941853908     0.000000000000000
    -0.000000000000000     0.000000000000000    -0.001072941853908
   1  44
    -0.000715646681456    -0.000000000000000     0.000000000000000
     0.000000000000041    -0.004986427810222     0.008845826584555
     0.000000000000029     0.008845826584449    -0.011241371773036
   1  45
     0.004062222333198     0.011527691871644    -0.015226947454490
     0.011527691871288     0.017373254342715     0.008791282211893
    -0.015226878614291     0.008791242467636    -0.049795727616209
   1  46
    -0.003918732528083    -0.001849302475634    -0.007660710539874
    -0.001849302475679    -0.001783341963514    -0.004422913292121
    -0.007660710539572    -0.004422913292016    -0.011241371773117
   1  47
    -0.003918732527787     0.001849302475634     0.007660710539874
     0.001849302475639    -0.001783341963590    -0.004422913292434
     0.007660710539180    -0.004422913292070    -0.011241371773339
   1  48
     0.004062222333167    -0.011527691871644     0.015226947454490
    -0.011527691870491     0.017373254343185     0.008791282211271
     0.015226878613095     0.008791242467969    -0.049795727616648
   1  49
    -0.267411704604247    -0.173312473598169    -0.540563434179354
    -0.173312473598350    -0.067287698008853    -0.312094444219244
    -0.540563434158959    -0.312094444210144    -0.808841903644469
   1  50
    -0.267411704581567     0.173312473598169     0.540563434179354
     0.173312473597510    -0.067287698015928    -0.312094444241313
     0.540563434130588    -0.312094444215147    -0.808841903660073
   1  51
    -0.035694548582951     0.012440107515120     0.032174672091764
     0.012440042613209     0.002949917931331    -0.000165439453916
     0.032174695036840    -0.000165479198009     0.004384379711323
   1  52
    -0.035694548584388    -0.012440107515120    -0.032174672091764
    -0.012440042611636     0.002949917931839    -0.000165439452602
    -0.032174695035690    -0.000165479197650     0.004384379712252
   1  53
     0.032774305271111    -0.000000000000000     0.000000000000000
     0.000000000000839    -0.367473707889922     0.624188888460557
     0.000000000000594     0.624188888453069    -0.808841903638758
   1  54
     0.053249729459382     0.012391399486591    -0.017524085210556
     0.012391399485325     0.038941373801461    -0.010117535313024
    -0.017524085209485    -0.010117535313439     0.046095551630582
   1  55
    -0.017496315736234    -0.000000000000000     0.000000000000000
     0.000000000000383     0.000607128541485     0.000935343330147
     0.000000000000271     0.000935343330136    -0.000054259069966
   1  56
     0.053249729459382    -0.012391399486591     0.017524085210556
    -0.012391399486201     0.038941373801967    -0.010117535313740
     0.017524085208866    -0.010117535313082     0.046095551630076
   1  57
     0.004062222333198    -0.010513539778717     0.015944061276568
    -0.010513474875846    -0.036806852985457     0.027946803115560
     0.015944038329369     0.027946842859375     0.004384379711963
   1  58
    -0.003918732528083    -0.007839021320450     0.000810031085187
    -0.007839021320266    -0.012970454666634    -0.000467671665090
     0.000810031085064    -0.000467671665136    -0.000054259069998
   1  59
    -0.003918732527787     0.007839021320450    -0.000810031085187
     0.007839021319883    -0.012970454666954    -0.000467671665057
    -0.000810031084972    -0.000467671665363    -0.000054259069974
   1  60
     0.004062222333167     0.010513539778717    -0.015944061276568
     0.010513474874984    -0.036806852985887     0.027946803116211
    -0.015944038328219     0.027946842859072     0.004384379712424
   1  61
    -0.017484619728345    -0.022953549939961    -0.016230610815196
    -0.022953614842070    -0.015260010923574    -0.027781363662295
    -0.016230656707723    -0.027781363661961     0.004384379711624
   1  62
     0.031787195972661     0.000000000000000    -0.000000000000000
     0.000000000000876     0.060403907287998     0.020235070626764
     0.000000000000620     0.020235070626521     0.046095551630767
   1  63
    -0.017484619726940     0.022953549939961     0.016230610815196
     0.022953614841359    -0.015260010924512    -0.027781363662957
     0.016230656707220    -0.027781363662624     0.004384379711155
   1  64
    -0.002920277799004     0.000000000000000     0.000000000000000
    -0.000000000000000    -0.002920277799004     0.000000000000000
    -0.000000000000000     0.000000000000000    -0.002920277799004
   2   1
    -1.250210099490223     0.000000000007390     0.000000000007359
     0.000000000026559     0.060187760345085     0.019384239982561
     0.000000000018724     0.019384239981076     0.046481032809870
   2   2
     4.821113081543877    -0.000000000028499    -0.000000000028376
    -0.000000000028499     4.821113081012199     0.000000000173732
    -0.000000000028376     0.000000000173732     4.821113081200926
   2   3
    -1.250210099490223     0.000000000007390     0.000000000007359
     0.000000000026559     0.060187760345085     0.019384239982561
     0.000000000018724     0.019384239981076     0.046481032809870
   2   4
    -0.116400451009387     0.000000000000688     0.000000000000685
     0.000000000002418     0.002781596938410     0.000196124354008
     0.000000000001706     0.000196124353993     0.002642916077922
   2   5
    -0.267411704600993     0.567418917795567    -0.016787244234442
     0.567418917822595    -0.922610634443241    -0.009692120026440
    -0.016787244244199    -0.009692120010005     0.046481032808744
   2   6
    -0.267411704617163    -0.567418917792405     0.016787244237590
    -0.567418917838602    -0.922610634413368    -0.009692120020446
     0.016787244252432    -0.009692119993823     0.046481032808062
   2   7
    -0.035694548586337    -0.034481274261004    -0.001003755147843
    -0.034481274262613     0.004120997371483    -0.000579518303826
    -0.001003686307190    -0.000579478558976     0.003213300272537
   2   8
    -0.035694548585319     0.034481274261426     0.001003755148263
     0.034481274264180     0.004120997369668    -0.000579518304273
     0.001003686308259    -0.000579478559984     0.003213300272496
   2   9
     0.024028770349478    -0.000000000000142    -0.000000000000141
    -0.000000000001287    -0.055602321558106     0.001159036606393
    -0.000000000000303     0.001158957118485     0.003213300272604
   2  10
    -0.027013915049059    -0.051607340594397     0.000169848671088
    -0.051607340598562    -0.086604939011455    -0.000098062179774
     0.000169848672455    -0.000098062177397     0.002642916077904
   2  11
     0.024028770349478    -0.000000000000142    -0.000000000000141
    -0.000000000001287    -0.055602321558106     0.001159036606393
    -0.000000000000303     0.001158957118485     0.003213300272604
   2  12
    -0.027013915047565     0.051607340594716    -0.000169848670770
     0.051607340597152    -0.086604939014172    -0.000098062180375
    -0.000169848671633    -0.000098062178885     0.002642916077911
   2  13
    -0.035694548586337    -0.034481274261004    -0.001003755147843
    -0.034481274262613     0.004120997371483    -0.000579518303826
    -0.001003686307190    -0.000579478558976     0.003213300272537
   2  14
    -0.267411704617162    -0.567418917792405     0.016787244237590
    -0.567418917838602    -0.922610634413368    -0.009692120020446
     0.016787244252432    -0.009692119993823     0.046481032808062
   2  15
    -0.267411704600993     0.567418917795567    -0.016787244234442
     0.567418917822595    -0.922610634443241    -0.009692120026440
    -0.016787244244199    -0.009692120010005     0.046481032808744
   2  16
    -0.035694548585319     0.034481274261426     0.001003755148263
     0.034481274264180     0.004120997369668    -0.000579518304273
     0.001003686308259    -0.000579478559984     0.003213300272496
   2  17
    -0.267411704601944     0.173312473610596     0.540563434181409
     0.173312473610226    -0.067287698024848    -0.312094444241430
     0.540563434169883    -0.312094444231945    -0.808841903665877
   2  18
    -0.267411704616212    -0.173312473607435    -0.540563434178261
    -0.173312473606596    -0.067287698015723    -0.312094444217321
    -0.540563434185043    -0.312094444220551    -0.808841903643909
   2  19
    -0.035694548586283    -0.012440107515449    -0.032174672091659
    -0.012440042612405     0.002949917931760    -0.000165439452421
    -0.032174695037661    -0.000165479197294     0.004384379712389
   2  20
    -0.035694548585373     0.012440107515871     0.032174672092079
     0.012440042613945     0.002949917931105    -0.000165439453881
     0.032174695038761    -0.000165479198033     0.004384379711081
   2  21
     0.031787195974583    -0.000000000000188    -0.000000000000187
     0.000000000000400     0.060403907285718     0.020235070628725
     0.000000000000229     0.020235070627174     0.046095551631005
   2  22
    -0.017484619729171    -0.022953549939299    -0.016230610815747
    -0.022953614843204    -0.015260010923680    -0.027781363662413
    -0.016230656708566    -0.027781363660324     0.004384379710671
   2  23
    -0.002920277799180     0.000000000000017     0.000000000000017
     0.000000000000017    -0.002920277798858    -0.000000000000105
     0.000000000000017    -0.000000000000105    -0.002920277798973
   2  24
    -0.017484619728228     0.022953549939506     0.016230610815953
     0.022953614843000    -0.015260010924888    -0.027781363663346
     0.016230656708340    -0.027781363661178     0.004384379710012
   2  25
    -0.003918732528279    -0.007839021320007     0.000810031084919
    -0.007839021320660    -0.012970454665959    -0.000467671665506
     0.000810031085116    -0.000467671665120    -0.000054259070019
   2  26
     0.004062222333412    -0.010513539777643     0.015944061275995
    -0.010513474876429    -0.036806852982555     0.027946803113997
     0.015944038330142     0.027946842858047     0.004384379712830
   2  27
     0.004062222333444     0.010513539777595    -0.015944061276043
     0.010513474875673    -0.036806852983108     0.027946803114524
    -0.015944038329374     0.027946842857932     0.004384379713478
   2  28
    -0.003918732528065     0.007839021320053    -0.000810031084872
     0.007839021320436    -0.012970454666371    -0.000467671665566
    -0.000810031085018    -0.000467671665337    -0.000054259069986
   2  29
     0.053249729462632     0.012391399485027    -0.017524085210236
     0.012391399485903     0.038941373799083    -0.010117535311586
    -0.017524085210756    -0.010117535311171     0.046095551629829
   2  30
     0.032774305273093    -0.000000000000194    -0.000000000000193
    -0.000000000000662    -0.367473707849126     0.624188888440659
     0.000000000001664     0.624188888392832    -0.808841903607640
   2  31
     0.053249729462573    -0.012391399485657     0.017524085209609
    -0.012391399487121     0.038941373799736    -0.010117535312156
     0.017524085209714    -0.010117535311020     0.046095551629117
   2  32
    -0.017496315737292     0.000000000000103     0.000000000000103
     0.000000000000374     0.000607128541488     0.000935343330159
     0.000000000000266     0.000935343330087    -0.000054259069931
   2  33
     0.024028770349478    -0.000000000000142    -0.000000000000141
    -0.000000000000678    -0.002593293672016    -0.017582564423070
    -0.000000000001027    -0.017582484933904    -0.049795727616912
   2  34
    -0.027013915048976    -0.017042312001348    -0.048712483551719
    -0.017042312001340    -0.007335148203796    -0.028124165489735
    -0.048712483552307    -0.028124165490067    -0.076626874734795
   2  35
     0.024028770349478    -0.000000000000142    -0.000000000000141
    -0.000000000000678    -0.002593293672016    -0.017582564423070
    -0.000000000001027    -0.017582484933904    -0.049795727616912
   2  36
    -0.027013915047649     0.017042312001667     0.048712483552037
     0.017042312001749    -0.007335148204693    -0.028124165491924
     0.048712483550961    -0.028124165491135    -0.076626874736775
   2  37
    -0.003918732528264    -0.001849302475795    -0.007660710539836
    -0.001849302475754    -0.001783341963574    -0.004422913292127
    -0.007660710539942    -0.004422913292156    -0.011241371773112
   2  38
     0.004062222333465     0.011527691870497    -0.015226947453936
     0.011527691871831     0.017373254342098     0.008791282212357
    -0.015226878614970     0.008791242465494    -0.049795727615271
   2  39
     0.004062222333391    -0.011527691870545     0.015226947453888
    -0.011527691871342     0.017373254342705     0.008791282211871
     0.015226878614257     0.008791242465647    -0.049795727615890
   2  40
    -0.003918732528080     0.001849302475841     0.007660710539882
     0.001849302475787    -0.001783341963671    -0.004422913292462
     0.007660710539735    -0.004422913292300    -0.011241371773423
   2  41
    -0.000715646681500     0.000000000000004     0.000000000000004
     0.000000000000018    -0.004986427809655     0.008845826584281
     0.000000000000043     0.008845826583604    -0.011241371772598
   2  42
     0.002504235217488    -0.000000000000015    -0.000000000000015
    -0.000000000000105    -0.036853298464967     0.056248330979802
     0.000000000000125     0.056248330975492    -0.076626874731527
   2  43
    -0.000715646681500     0.000000000000004     0.000000000000004
     0.000000000000018    -0.004986427809655     0.008845826584281
     0.000000000000043     0.008845826583604    -0.011241371772598
   2  44
    -0.001072941853973     0.000000000000006     0.000000000000006
     0.000000000000006    -0.001072941853854    -0.000000000000039
     0.000000000000006    -0.000000000000039    -0.001072941853896
   2  45
     0.004062222333391    -0.011527691870545     0.015226947453888
    -0.011527691871342     0.017373254342705     0.008791282211871
     0.015226878614257     0.008791242465647    -0.049795727615890
   2  46
     0.004062222333465     0.011527691870497    -0.015226947453936
     0.011527691871831     0.017373254342098     0.008791282212357
    -0.015226878614970     0.008791242465494    -0.049795727615271
   2  47
    -0.003918732528264    -0.001849302475795    -0.007660710539836
    -0.001849302475754    -0.001783341963574    -0.004422913292127
    -0.007660710539942    -0.004422913292156    -0.011241371773112
   2  48
    -0.003918732528080     0.001849302475841     0.007660710539882
     0.001849302475787    -0.001783341963671    -0.004422913292462
     0.007660710539735    -0.004422913292300    -0.011241371773423
   2  49
    -0.035694548586283    -0.012440107515449    -0.032174672091659
    -0.012440042612405     0.002949917931760    -0.000165439452421
    -0.032174695037661    -0.000165479197294     0.004384379712389
   2  50
    -0.267411704616212    -0.173312473607435    -0.540563434178261
    -0.173312473606596    -0.067287698015723    -0.312094444217321
    -0.540563434185043    -0.312094444220551    -0.808841903643909
   2  51
    -0.267411704601944     0.173312473610596     0.540563434181409
     0.173312473610226    -0.067287698024847    -0.312094444241430
     0.540563434169883    -0.312094444231945    -0.808841903665877
   2  52
    -0.035694548585373     0.012440107515871     0.032174672092079
     0.012440042613945     0.002949917931105    -0.000165439453881
     0.032174695038761    -0.000165479198033     0.004384379711081
   2  53
     0.053249729462573    -0.012391399485657     0.017524085209609
    -0.012391399487121     0.038941373799736    -0.010117535312156
     0.017524085209714    -0.010117535311020     0.046095551629117
   2  54
     0.032774305273093    -0.000000000000194    -0.000000000000193
    -0.000000000000662    -0.367473707849126     0.624188888440659
     0.000000000001664     0.624188888392832    -0.808841903607639
   2  55
     0.053249729462632     0.012391399485027    -0.017524085210236
     0.012391399485903     0.038941373799083    -0.010117535311586
    -0.017524085210756    -0.010117535311171     0.046095551629829
   2  56
    -0.017496315737292     0.000000000000103     0.000000000000103
     0.000000000000374     0.000607128541488     0.000935343330159
     0.000000000000266     0.000935343330087    -0.000054259069931
   2  57
     0.004062222333444     0.010513539777595    -0.015944061276043
     0.010513474875673    -0.036806852983108     0.027946803114524
    -0.015944038329374     0.027946842857932     0.004384379713478
   2  58
     0.004062222333412    -0.010513539777643     0.015944061275995
    -0.010513474876429    -0.036806852982555     0.027946803113997
     0.015944038330142     0.027946842858047     0.004384379712830
   2  59
    -0.003918732528279    -0.007839021320007     0.000810031084919
    -0.007839021320660    -0.012970454665959    -0.000467671665506
     0.000810031085116    -0.000467671665120    -0.000054259070019
   2  60
    -0.003918732528065     0.007839021320053    -0.000810031084872
     0.007839021320436    -0.012970454666371    -0.000467671665566
    -0.000810031085018    -0.000467671665337    -0.000054259069986
   2  61
    -0.002920277799180     0.000000000000017     0.000000000000017
     0.000000000000017    -0.002920277798858    -0.000000000000105
     0.000000000000017    -0.000000000000105    -0.002920277798973
   2  62
    -0.017484619729171    -0.022953549939299    -0.016230610815747
    -0.022953614843204    -0.015260010923680    -0.027781363662413
    -0.016230656708566    -0.027781363660324     0.004384379710671
   2  63
     0.031787195974583    -0.000000000000188    -0.000000000000187
     0.000000000000400     0.060403907285718     0.020235070628725
     0.000000000000229     0.020235070627174     0.046095551631005
   2  64
    -0.017484619728228     0.022953549939506     0.016230610815953
     0.022953614843000    -0.015260010924888    -0.027781363663346
     0.016230656708340    -0.027781363661178     0.004384379710012
   3   1
    -0.116400451009387     0.000000000000688     0.000000000000685
     0.000000000002418     0.002781596938410     0.000196124354008
     0.000000000001706     0.000196124353993     0.002642916077922
   3   2
    -1.250210099490223     0.000000000007390     0.000000000007359
     0.000000000026559     0.060187760345085     0.019384239982561
     0.000000000018724     0.019384239981076     0.046481032809870
   3   3
     4.821113081543877    -0.000000000028499    -0.000000000028376
    -0.000000000028499     4.821113081012199     0.000000000173732
    -0.000000000028376     0.000000000173732     4.821113081200926
   3   4
    -1.250210099490223     0.000000000007390     0.000000000007359
     0.000000000026559     0.060187760345085     0.019384239982561
     0.000000000018724     0.019384239981076     0.046481032809870
   3   5
    -0.035694548585319     0.034481274261426     0.001003755148263
     0.034481274264180     0.004120997369668    -0.000579518304273
     0.001003686308259    -0.000579478559984     0.003213300272496
   3   6
    -0.267411704600993     0.567418917795567    -0.016787244234442
     0.567418917822595    -0.922610634443241    -0.009692120026440
    -0.016787244244199    -0.009692120010005     0.046481032808744
   3   7
    -0.267411704617162    -0.567418917792405     0.016787244237590
    -0.567418917838602    -0.922610634413368    -0.009692120020446
     0.016787244252432    -0.009692119993823     0.046481032808062
   3   8
    -0.035694548586337    -0.034481274261004    -0.001003755147843
    -0.034481274262613     0.004120997371483    -0.000579518303826
    -0.001003686307190    -0.000579478558976     0.003213300272537
   3   9
    -0.027013915047565     0.051607340594716    -0.000169848670770
     0.051607340597152    -0.086604939014172    -0.000098062180375
    -0.000169848671633    -0.000098062178885     0.002642916077911
   3  10
     0.024028770349478    -0.000000000000142    -0.000000000000141
    -0.000000000001287    -0.055602321558106     0.001159036606393
    -0.000000000000303     0.001158957118485     0.003213300272604
   3  11
    -0.027013915049059    -0.051607340594397     0.000169848671088
    -0.051607340598562    -0.086604939011455    -0.000098062179774
     0.000169848672455    -0.000098062177397     0.002642916077904
   3  12
     0.024028770349478    -0.000000000000142    -0.000000000000141
    -0.000000000001287    -0.055602321558106     0.001159036606393
    -0.000000000000303     0.001158957118485     0.003213300272604
   3  13
    -0.035694548585319     0.034481274261426     0.001003755148263
     0.034481274264180     0.004120997369668    -0.000579518304273
     0.001003686308259    -0.000579478559984     0.003213300272496
   3  14
    -0.035694548586337    -0.034481274261004    -0.001003755147843
    -0.034481274262613     0.004120997371483    -0.000579518303826
    -0.001003686307190    -0.000579478558976     0.003213300272537
   3  15
    -0.267411704617163    -0.567418917792405     0.016787244237590
    -0.567418917838602    -0.922610634413368    -0.009692120020446