  64   64
1 1
     4.821113081252336    -0.000000000000000     0.000000000000000
    -0.000000000000001     4.821113081252334    -0.000000000000000
    -0.000000000000000     0.000000000000000     4.821113081252332
1 2
    -1.250210099414620    -0.000000000000000    -0.000000000000000
     0.000000000027028     0.060187760347384     0.019384239980599
     0.000000000019112     0.019384239980366     0.046481032809667
1 3
    -0.116400451002348    -0.000000000000000     0.000000000000000
     0.000000000002436     0.002781596938541     0.000196124353910
     0.000000000001722     0.000196124353907     0.002642916077943
1 4
    -1.250210099414620    -0.000000000000000    -0.000000000000000
     0.000000000027028     0.060187760347384     0.019384239980599
     0.000000000019112     0.019384239980366     0.046481032809667
1 5
    -0.267411704604247    -0.567418917822854     0.016787244256642
    -0.567418917809799    -0.922610634462327    -0.009692119990642
     0.016787244251633    -0.009692119995882     0.046481032809005
1 6
    -0.035694548584388    -0.034481274262897    -0.001003755146821
    -0.034481274260507     0.004120997371505    -0.000579518304184
    -0.001003686307114    -0.000579478559127     0.003213300272586
1 7
    -0.035694548582951     0.034481274262897     0.001003755146821
     0.034481274262116     0.004120997370098    -0.000579518304225
     0.001003686308214    -0.000579478560122     0.003213300272557
1 8
    -0.267411704581567     0.567418917822854    -0.016787244256642
     0.567418917782771    -0.922610634485491    -0.009692119989957
    -0.016787244242968    -0.009692120012262     0.046481032809490
1 9
    -0.027013915047730    -0.051607340597133     0.000169848672791
    -0.051607340595954    -0.086604939016070    -0.000098062176958
     0.000169848672460    -0.000098062177496     0.002642916077936
1 10
     0.024028770348024     0.000000000000000    -0.000000000000000
    -0.000000000001609    -0.055602321560917     0.001159036608409
    -0.000000000000277     0.001158957118427     0.003213300272597
1 11
    -0.027013915045628     0.051607340597133    -0.000169848672791
     0.051607340593519    -0.086604939018177    -0.000098062176951
    -0.000169848671608    -0.000098062178986     0.002642916077941
1 12
     0.024028770348024     0.000000000000000    -0.000000000000000
    -0.000000000001609    -0.055602321560917     0.001159036608409
    -0.000000000000277     0.001158957118427     0.003213300272597
1 13
    -0.267411704604247    -0.567418917822854     0.016787244256642
    -0.567418917809799    -0.922610634462327    -0.009692119990642
     0.016787244251633    -0.009692119995882     0.046481032809005
1 14
    -0.267411704581567     0.567418917822854    -0.016787244256642
     0.567418917782771    -0.922610634485492    -0.009692119989957
    -0.016787244242967    -0.009692120012262     0.046481032809490
1 15
    -0.035694548582951     0.034481274262897     0.001003755146821
     0.034481274262116     0.004120997370098    -0.000579518304225
     0.001003686308214    -0.000579478560122     0.003213300272557
1 16
    -0.035694548584388    -0.034481274262897    -0.001003755146821
    -0.034481274260507     0.004120997371505    -0.000579518304184
    -0.001003686307114    -0.000579478559127     0.003213300272586
1 17
    -0.267411704604247    -0.173312473598169    -0.540563434179354
    -0.173312473598349    -0.067287698008852    -0.312094444219244
    -0.540563434158959    -0.312094444210144    -0.808841903644469
1 18
    -0.035694548584388    -0.012440107515120    -0.032174672091764
    -0.012440042611636     0.002949917931839    -0.000165439452602
    -0.032174695035690    -0.000165479197650     0.004384379712252
1 19
    -0.035694548582951     0.012440107515120     0.032174672091764
     0.012440042613209     0.002949917931331    -0.000165439453916
     0.032174695036840    -0.000165479198009     0.004384379711323
1 20
    -0.267411704581567     0.173312473598169     0.540563434179354
     0.173312473597510    -0.067287698015928    -0.312094444241313
     0.540563434130588    -0.312094444215147    -0.808841903660073
1 21
    -0.017484619728345    -0.022953549939961    -0.016230610815196
    -0.022953614842070    -0.015260010923574    -0.027781363662295
    -0.016230656707723    -0.027781363661961     0.004384379711624
1 22
    -0.002920277799004     0.000000000000000    -0.000000000000000
     0.000000000000000    -0.002920277799004     0.000000000000000
     0.000000000000000    -0.000000000000000    -0.002920277799004
1 23
    -0.017484619726940     0.022953549939961     0.016230610815196
     0.022953614841359    -0.015260010924512    -0.027781363662957
     0.016230656707220    -0.027781363662624     0.004384379711155
1 24
     0.031787195972661    -0.000000000000000     0.000000000000000
     0.000000000000876     0.060403907287998     0.020235070626764
     0.000000000000620     0.020235070626521     0.046095551630767
1 25
     0.004062222333198    -0.010513539778717     0.015944061276568
    -0.010513474875846    -0.036806852985457     0.027946803115560
     0.015944038329369     0.027946842859375     0.004384379711963
1 26
     0.004062222333167     0.010513539778717    -0.015944061276568
     0.010513474874984    -0.036806852985887     0.027946803116211
    -0.015944038328219     0.027946842859072     0.004384379712424
1 27
    -0.003918732527787     0.007839021320450    -0.000810031085187
     0.007839021319883    -0.012970454666954    -0.000467671665057
    -0.000810031084972    -0.000467671665363    -0.000054259069974
1 28
    -0.003918732528083    -0.007839021320450     0.000810031085187
    -0.007839021320266    -0.012970454666634    -0.000467671665090
     0.000810031085064    -0.000467671665136    -0.000054259069998
1 29
     0.032774305271111     0.000000000000000    -0.000000000000000
     0.000000000000839    -0.367473707889922     0.624188888460557
     0.000000000000594     0.624188888453069    -0.808841903638757
1 30
     0.053249729459382    -0.012391399486591     0.017524085210556
    -0.012391399486201     0.038941373801967    -0.010117535313740
     0.017524085208865    -0.010117535313082     0.046095551630076
1 31
    -0.017496315736234    -0.000000000000000    -0.000000000000000
     0.000000000000383     0.000607128541485     0.000935343330147
     0.000000000000271     0.000935343330136    -0.000054259069966
1 32
     0.053249729459382     0.012391399486591    -0.017524085210556
     0.012391399485325     0.038941373801461    -0.010117535313024
    -0.017524085209485    -0.010117535313439     0.046095551630582
1 33
    -0.027013915047730    -0.017042312000601    -0.048712483551784
    -0.017042312000518    -0.007335148203248    -0.028124165489871
    -0.048712483549978    -0.028124165488995    -0.076626874734885
1 34
     0.024028770348024    -0.000000000000000     0.000000000000000
    -0.000000000000797    -0.002593293671511    -0.017582564423164
    -0.000000000001424    -0.017582484932985    -0.049795727616809
1 35
    -0.027013915045628     0.017042312000601     0.048712483551784
     0.017042312000509    -0.007335148203944    -0.028124165491859
     0.048712483547398    -0.028124165489486    -0.076626874736291
1 36
     0.024028770348024    -0.000000000000000     0.000000000000000
    -0.000000000000797    -0.002593293671511    -0.017582564423164
    -0.000000000001424    -0.017582484932985    -0.049795727616809
1 37
     0.004062222333198     0.011527691871644    -0.015226947454490
     0.011527691871288     0.017373254342715     0.008791282211893
    -0.015226878614291     0.008791242467636    -0.049795727616209
1 38
     0.004062222333167    -0.011527691871644     0.015226947454490
    -0.011527691870491     0.017373254343185     0.008791282211271
     0.015226878613095     0.008791242467969    -0.049795727616648
1 39
    -0.003918732527787     0.001849302475634     0.007660710539874
     0.001849302475639    -0.001783341963590    -0.004422913292434
     0.007660710539180    -0.004422913292070    -0.011241371773339
1 40
    -0.003918732528083    -0.001849302475634    -0.007660710539874
    -0.001849302475679    -0.001783341963514    -0.004422913292121
    -0.007660710539572    -0.004422913292016    -0.011241371773117
1 41
     0.002504235217336     0.000000000000000    -0.000000000000000
     0.000000000000008    -0.036853298468829     0.056248330981730
     0.000000000000006     0.056248330981055    -0.076626874734371
1 42
    -0.000715646681456    -0.000000000000000    -0.000000000000000
     0.000000000000041    -0.004986427810222     0.008845826584555
     0.000000000000029     0.008845826584449    -0.011241371773036
1 43
    -0.001072941853908     0.000000000000000    -0.000000000000000
     0.000000000000000    -0.001072941853908     0.000000000000000
     0.000000000000000    -0.000000000000000    -0.001072941853908
1 44
    -0.000715646681456     0.000000000000000    -0.000000000000000
     0.000000000000041    -0.004986427810222     0.008845826584555
     0.000000000000029     0.008845826584449    -0.011241371773036
1 45
     0.004062222333198     0.011527691871644    -0.015226947454490
     0.011527691871288     0.017373254342715     0.008791282211893
    -0.015226878614291     0.008791242467636    -0.049795727616209
1 46
    -0.003918732528083    -0.001849302475634    -0.007660710539874
    -0.001849302475679    -0.001783341963514    -0.004422913292121
    -0.007660710539572    -0.004422913292016    -0.011241371773117
1 47
    -0.003918732527787     0.001849302475634     0.007660710539874
     0.001849302475639    -0.001783341963590    -0.004422913292434
     0.007660710539180    -0.004422913292070    -0.011241371773339
1 48
     0.004062222333167    -0.011527691871644     0.015226947454490
    -0.011527691870491     0.017373254343185     0.008791282211271
     0.015226878613095     0.008791242467969    -0.049795727616648
1 49
    -0.267411704604247    -0.173312473598169    -0.540563434179354
    -0.173312473598349    -0.067287698008852    -0.312094444219244
    -0.540563434158959    -0.312094444210144    -0.808841903644469
1 50
    -0.267411704581567     0.173312473598169     0.540563434179354
     0.173312473597510    -0.067287698015928    -0.312094444241313
     0.540563434130588    -0.312094444215147    -0.808841903660073
1 51
    -0.035694548582951     0.012440107515120     0.032174672091764
     0.012440042613209     0.002949917931331    -0.000165439453916
     0.032174695036840    -0.000165479198009     0.004384379711323
1 52
    -0.035694548584388    -0.012440107515120    -0.032174672091764
    -0.012440042611636     0.002949917931839    -0.000165439452602
    -0.032174695035690    -0.000165479197650     0.004384379712252
1 53
     0.032774305271111     0.000000000000000    -0.000000000000000
     0.000000000000839    -0.367473707889922     0.624188888460557
     0.000000000000594     0.624188888453069    -0.808841903638758
1 54
     0.053249729459382     0.012391399486591    -0.017524085210556
     0.012391399485325     0.038941373801461    -0.010117535313024
    -0.017524085209485    -0.010117535313439     0.046095551630582
1 55
    -0.017496315736234    -0.000000000000000    -0.000000000000000
     0.000000000000383     0.000607128541485     0.000935343330147
     0.000000000000271     0.000935343330136    -0.000054259069966
1 56
     0.053249729459382    -0.012391399486591     0.017524085210556
    -0.012391399486201     0.038941373801967    -0.010117535313740
     0.017524085208865    -0.010117535313082     0.046095551630076
1 57
     0.004062222333198    -0.010513539778717     0.015944061276568
    -0.010513474875846    -0.036806852985457     0.027946803115560
     0.015944038329369     0.027946842859375     0.004384379711963
1 58
    -0.003918732528083    -0.007839021320450     0.000810031085187
    -0.007839021320266    -0.012970454666634    -0.000467671665090
     0.000810031085064    -0.000467671665136    -0.000054259069998
1 59
    -0.003918732527787     0.007839021320450    -0.000810031085187
     0.007839021319883    -0.012970454666954    -0.000467671665057
    -0.000810031084972    -0.000467671665363    -0.000054259069974
1 60
     0.004062222333167     0.010513539778717    -0.015944061276568
     0.010513474874984    -0.036806852985887     0.027946803116211
    -0.015944038328219     0.027946842859072     0.004384379712424
1 61
    -0.017484619728345    -0.022953549939961    -0.016230610815196
    -0.022953614842070    -0.015260010923574    -0.027781363662295
    -0.016230656707723    -0.027781363661961     0.004384379711624
1 62
     0.031787195972661    -0.000000000000000     0.000000000000000
     0.000000000000876     0.060403907287998     0.020235070626764
     0.000000000000620     0.020235070626521     0.046095551630767
1 63
    -0.017484619726940     0.022953549939961     0.016230610815196
     0.022953614841359    -0.015260010924512    -0.027781363662957
     0.016230656707220    -0.027781363662624     0.004384379711155
1 64
    -0.002920277799004     0.000000000000000    -0.000000000000000
     0.000000000000000    -0.002920277799004     0.000000000000000
     0.000000000000000    -0.000000000000000    -0.002920277799004
2 1
    -1.250210099446022    -0.000000000018129    -0.000000000010687
     0.000000000028067     0.060187760346729     0.019384239981056
     0.000000000019790     0.019384239980599     0.046481032809386
2 2
     4.821113081373425     0.000000000069910     0.000000000041210
     0.000000000069910     4.821113081182651     0.000000000053203
     0.000000000041210     0.000000000053204     4.821113081200925
2 3
    -1.250210099446022    -0.000000000018129    -0.000000000010687
     0.000000000028067     0.060187760346728     0.019384239981056
     0.000000000019790     0.019384239980599     0.046481032809386
2 4
    -0.116400451005271    -0.000000000001688    -0.000000000000995
     0.000000000002478     0.002781596938503     0.000196124353938
     0.000000000001748     0.000196124353934     0.002642916077917
2 5
    -0.267411704580199     0.567418917810590    -0.016787244252487
     0.567418917783561    -0.922610634464035    -0.009692119995185
    -0.016787244243132    -0.009692120011852     0.046481032808744
2 6
    -0.267411704619048    -0.567418917818345     0.016787244247915
    -0.567418917837513    -0.922610634457327    -0.009692120005570
     0.016787244252312    -0.009692119994985     0.046481032808546
2 7
    -0.035694548585793    -0.034481274262927    -0.001003755147496
    -0.034481274261318     0.004120997370939    -0.000579518304427
    -0.001003686307120    -0.000579478559098     0.003213300272537
2 8
    -0.035694548583339     0.034481274261892     0.001003755146886
     0.034481274263037     0.004120997370532    -0.000579518303878
     0.001003686308258    -0.000579478560064     0.003213300272525
2 9
     0.024028770348628     0.000000000000348     0.000000000000205
    -0.000000000002405    -0.055602321560101     0.001159036607783
    -0.000000000000233     0.001158957118445     0.003213300272575
2 10
    -0.027013915049155    -0.051607340596777     0.000169848671988
    -0.051607340598507    -0.086604939015568    -0.000098062178354
     0.000169848672486    -0.000098062177463     0.002642916077909
2 11
     0.024028770348628     0.000000000000348     0.000000000000205
    -0.000000000002405    -0.055602321560101     0.001159036607783
    -0.000000000000233     0.001158957118445     0.003213300272575
2 12
    -0.027013915045559     0.051607340595994    -0.000169848672450
     0.051607340593558    -0.086604939016178    -0.000098062177465
    -0.000169848671591    -0.000098062178958     0.002642916077911
2 13
    -0.035694548585793    -0.034481274262927    -0.001003755147496
    -0.034481274261318     0.004120997370939    -0.000579518304427
    -0.001003686307120    -0.000579478559098     0.003213300272537
2 14
    -0.267411704619048    -0.567418917818345     0.016787244247915
    -0.567418917837513    -0.922610634457327    -0.009692120005570
     0.016787244252312    -0.009692119994985     0.046481032808546
2 15
    -0.267411704580199     0.567418917810589    -0.016787244252487
     0.567418917783561    -0.922610634464035    -0.009692119995185
    -0.016787244243132    -0.009692120011852     0.046481032808744
2 16
    -0.035694548583339     0.034481274261892     0.001003755146886
     0.034481274263037     0.004120997370532    -0.000579518303878
     0.001003686308258    -0.000579478560064     0.003213300272525
2 17
    -0.267411704581149     0.173312473597751     0.540563434173217
     0.173312473598220    -0.067287698015886    -0.312094444237246
     0.540563434132725    -0.312094444211724    -0.808841903650272
2 18
    -0.267411704618098    -0.173312473605507    -0.540563434177788
    -0.173312473606346    -0.067287698013837    -0.312094444218140
    -0.540563434183976    -0.312094444222398    -0.808841903643909
2 19
    -0.035694548585740    -0.012440107515813    -0.032174672091863
    -0.012440042611907     0.002949917931614    -0.000165439452674
    -0.032174695036463    -0.000165479198066     0.004384379711929
2 20
    -0.035694548583392     0.012440107514777     0.032174672091253
     0.012440042613563     0.002949917931467    -0.000165439453775
     0.032174695037684    -0.000165479197492     0.004384379711550
2 21
     0.031787195973459     0.000000000000461     0.000000000000272
     0.000000000001925     0.060403907287348     0.020235070627215
     0.000000000001307     0.020235070626737     0.046095551630499
2 22
    -0.017484619729256    -0.022953549940062    -0.016230610815426
    -0.022953614843105    -0.015260010923993    -0.027781363662363
    -0.016230656708496    -0.027781363661747     0.004384379711131
2 23
    -0.002920277799077    -0.000000000000042    -0.000000000000025
    -0.000000000000042    -0.002920277798961    -0.000000000000032
    -0.000000000000025    -0.000000000000032    -0.002920277798973
2 24
    -0.017484619726907     0.022953549939554     0.016230610815127
     0.022953614841476    -0.015260010924265    -0.027781363662633
     0.016230656707262    -0.027781363661939     0.004384379710940
2 25
    -0.003918732528288    -0.007839021320384     0.000810031085058
    -0.007839021320655    -0.012970454666566    -0.000467671665295
     0.000810031085077    -0.000467671665119    -0.000054259069995
2 26
     0.004062222333284    -0.010513539778330     0.015944061276317
    -0.010513474876405    -0.036806852984769     0.027946803114766
     0.015944038330212     0.027946842859251     0.004384379712361
2 27
     0.004062222333285     0.010513539778448    -0.015944061276247
     0.010513474874953    -0.036806852984894     0.027946803115596
    -0.015944038328176     0.027946842858485     0.004384379712549
2 28
    -0.003918732527778     0.007839021320271    -0.000810031085125
     0.007839021319888    -0.012970454666658    -0.000467671665128
    -0.000810031084999    -0.000467671665368    -0.000054259069986
2 29
     0.053249729460750     0.012391399486990    -0.017524085209777
     0.012391399486114     0.038941373800966    -0.010117535312381
    -0.017524085209678    -0.010117535313039     0.046095551629829
2 30
     0.032774305271934     0.000000000000475     0.000000000000280
     0.000000000000846    -0.367473707877723     0.624188888449846
     0.000000000002731     0.624188888435121    -0.808841903623244
2 31
     0.053249729460690    -0.012391399485446     0.017524085210688
    -0.012391399486034     0.038941373801113    -0.010117535313308
     0.017524085209553    -0.010117535312173     0.046095551629623
2 32
    -0.017496315736673    -0.000000000000254    -0.000000000000150
     0.000000000000400     0.000607128541486     0.000935343330144
     0.000000000000284     0.000935343330122    -0.000054259069955
2 33
     0.024028770348628     0.000000000000348     0.000000000000205
    -0.000000000000985    -0.002593293671668    -0.017582564423005
    -0.000000000002105    -0.017582484933280    -0.049795727616472
2 34
    -0.027013915049072    -0.017042312001284    -0.048712483551683
    -0.017042312001293    -0.007335148203700    -0.028124165489797
    -0.048712483552265    -0.028124165490140    -0.076626874734795
2 35
     0.024028770348628     0.000000000000348     0.000000000000205
    -0.000000000000985    -0.002593293671668    -0.017582564423005
    -0.000000000002105    -0.017582484933280    -0.049795727616472
2 36
    -0.027013915045643     0.017042312000501     0.048712483551221
     0.017042312000591    -0.007335148203901    -0.028124165491495
     0.048712483547558    -0.028124165489219    -0.076626874735368
2 37
    -0.003918732528274    -0.001849302475749    -0.007660710539847
    -0.001849302475789    -0.001783341963564    -0.004422913292110
    -0.007660710539924    -0.004422913292187    -0.011241371773112
2 38
     0.004062222333337     0.011527691871368    -0.015226947454165
     0.011527691871905     0.017373254342728     0.008791282212089
    -0.015226878614971     0.008791242466739    -0.049795727615711
2 39
     0.004062222333232    -0.011527691871250     0.015226947454235
    -0.011527691870453     0.017373254342864     0.008791282211271
     0.015226878613179     0.008791242467513    -0.049795727615890
2 40
    -0.003918732527793     0.001849302475635     0.007660710539780
     0.001849302475621    -0.001783341963586    -0.004422913292391
     0.007660710539212    -0.004422913292019    -0.011241371773202
2 41
    -0.000715646681474    -0.000000000000010    -0.000000000000006
     0.000000000000044    -0.004986427810052     0.008845826584406
     0.000000000000061     0.008845826584197    -0.011241371772819
2 42
     0.002504235217399     0.000000000000036     0.000000000000021
    -0.000000000000045    -0.036853298467676     0.056248330980724
     0.000000000000167     0.056248330979397    -0.076626874732933
2 43
    -0.000715646681474    -0.000000000000010    -0.000000000000006
     0.000000000000044    -0.004986427810052     0.008845826584406
     0.000000000000061     0.008845826584197    -0.011241371772819
2 44
    -0.001072941853935    -0.000000000000016    -0.000000000000009
    -0.000000000000016    -0.001072941853892    -0.000000000000012
    -0.000000000000009    -0.000000000000012    -0.001072941853896
2 45
     0.004062222333232    -0.011527691871250     0.015226947454235
    -0.011527691870453     0.017373254342864     0.008791282211271
     0.015226878613179     0.008791242467513    -0.049795727615890
2 46
     0.004062222333337     0.011527691871368    -0.015226947454165
     0.011527691871905     0.017373254342728     0.008791282212089
    -0.015226878614971     0.008791242466739    -0.049795727615711
2 47
    -0.003918732528274    -0.001849302475749    -0.007660710539847
    -0.001849302475789    -0.001783341963564    -0.004422913292110
    -0.007660710539924    -0.004422913292187    -0.011241371773112
2 48
    -0.003918732527793     0.001849302475635     0.007660710539780
     0.001849302475621    -0.001783341963586    -0.004422913292391
     0.007660710539212    -0.004422913292019    -0.011241371773202
2 49
    -0.035694548585740    -0.012440107515813    -0.032174672091863
    -0.012440042611907     0.002949917931614    -0.000165439452674
    -0.032174695036463    -0.000165479198066     0.004384379711929
2 50
    -0.267411704618098    -0.173312473605507    -0.540563434177788
    -0.173312473606346    -0.067287698013837    -0.312094444218140
    -0.540563434183976    -0.312094444222398    -0.808841903643909
2 51
    -0.267411704581149     0.173312473597751     0.540563434173217
     0.173312473598220    -0.067287698015886    -0.312094444237246
     0.540563434132725    -0.312094444211724    -0.808841903650272
2 52
    -0.035694548583392     0.012440107514777     0.032174672091253
     0.012440042613563     0.002949917931467    -0.000165439453775
     0.032174695037684    -0.000165479197492     0.004384379711550
2 53
     0.053249729460690    -0.012391399485446     0.017524085210688
    -0.012391399486034     0.038941373801113    -0.010117535313308
     0.017524085209553    -0.010117535312173     0.046095551629623
2 54
     0.032774305271934     0.000000000000475     0.000000000000280
     0.000000000000846    -0.367473707877723     0.624188888449846
     0.000000000002731     0.624188888435121    -0.808841903623244
2 55
     0.053249729460750     0.012391399486990    -0.017524085209777
     0.012391399486114     0.038941373800966    -0.010117535312381
    -0.017524085209678    -0.010117535313039     0.046095551629829
2 56
    -0.017496315736673    -0.000000000000254    -0.000000000000150
     0.000000000000400     0.000607128541486     0.000935343330144
     0.000000000000284     0.000935343330122    -0.000054259069955
2 57
     0.004062222333285     0.010513539778448    -0.015944061276247
     0.010513474874953    -0.036806852984894     0.027946803115596
    -0.015944038328176     0.027946842858485     0.004384379712549
2 58
     0.004062222333284    -0.010513539778330     0.015944061276317
    -0.010513474876405    -0.036806852984769     0.027946803114766
     0.015944038330212     0.027946842859251     0.004384379712361
2 59
    -0.003918732528288    -0.007839021320384     0.000810031085058
    -0.007839021320655    -0.012970454666566    -0.000467671665295
     0.000810031085077    -0.000467671665119    -0.000054259069995
2 60
    -0.003918732527778     0.007839021320271    -0.000810031085125
     0.007839021319888    -0.012970454666658    -0.000467671665128
    -0.000810031084999    -0.000467671665368    -0.000054259069986
2 61
    -0.002920277799077    -0.000000000000042    -0.000000000000025
    -0.000000000000042    -0.002920277798961    -0.000000000000032
    -0.000000000000025    -0.000000000000032    -0.002920277798973
2 62
    -0.017484619729256    -0.022953549940062    -0.016230610815426
    -0.022953614843105    -0.015260010923993    -0.027781363662363
    -0.016230656708496    -0.027781363661747     0.004384379711131
2 63
     0.031787195973459     0.000000000000461     0.000000000000272
     0.000000000001925     0.060403907287348     0.020235070627215
     0.000000000001307     0.020235070626737     0.046095551630499
2 64
    -0.017484619726907     0.022953549939554     0.016230610815127
     0.022953614841476    -0.015260010924265    -0.027781363662633
     0.016230656707262    -0.027781363661939     0.004384379710940
3 1
    -0.116400451005271    -0.000000000001688    -0.000000000000995
     0.000000000002478     0.002781596938503     0.000196124353938
     0.000000000001748     0.000196124353934     0.002642916077917
3 2
    -1.250210099446022    -0.000000000018129    -0.000000000010687
     0.000000000028067     0.060187760346728     0.019384239981056
     0.000000000019790     0.019384239980599     0.046481032809386
3 3
     4.821113081373425     0.000000000069910     0.000000000041210
     0.000000000069910     4.821113081182651     0.000000000053203
     0.000000000041210     0.000000000053204     4.821113081200925
3 4
    -1.250210099446022    -0.000000000018129    -0.000000000010687
     0.000000000028067     0.060187760346729     0.019384239981056
     0.000000000019790     0.019384239980599     0.046481032809386
3 5
    -0.035694548583339     0.034481274261892     0.001003755146886
     0.034481274263037     0.004120997370532    -0.000579518303878
     0.001003686308258    -0.000579478560064     0.003213300272525
3 6
    -0.267411704580199     0.567418917810589    -0.016787244252487
     0.567418917783561    -0.922610634464035    -0.009692119995185
    -0.016787244243132    -0.009692120011852     0.046481032808744
3 7
    -0.267411704619048    -0.567418917818345     0.016787244247915
    -0.567418917837513    -0.922610634457327    -0.009692120005570
     0.016787244252312    -0.009692119994985     0.046481032808546
3 8
    -0.035694548585793    -0.034481274262927    -0.001003755147496
    -0.034481274261318     0.004120997370939    -0.000579518304427
    -0.001003686307120    -0.000579478559098     0.003213300272537
3 9
    -0.027013915045559     0.051607340595994    -0.000169848672450
     0.051607340593558    -0.086604939016178    -0.000098062177465
    -0.000169848671591    -0.000098062178958     0.002642916077911
3 10
     0.024028770348628     0.000000000000348     0.000000000000205
    -0.000000000002405    -0.055602321560101     0.001159036607783
    -0.000000000000233     0.001158957118445     0.003213300272575
3 11
    -0.027013915049155    -0.051607340596777     0.000169848671988
    -0.051607340598507    -0.086604939015568    -0.000098062178354
     0.000169848672486    -0.000098062177463     0.002642916077909
3 12
     0.024028770348628     0.000000000000348     0.000000000000205
    -0.000000000002405    -0.055602321560101     0.001159036607783
    -0.000000000000233     0.001158957118445     0.003213300272575
3 13
    -0.035694548583339     0.034481274261892     0.001003755146886
     0.034481274263037     0.004120997370532    -0.000579518303878
     0.001003686308258    -0.000579478560064     0.003213300272525
3 14
    -0.035694548585793    -0.034481274262927    -0.001003755147496
    -0.034481274261318     0.004120997370939    -0.000579518304427
    -0.001003686307120    -0.000579478559098     0.003213300272537
3 15
    -0.267411704619048    -0.567418917818345     0.016787244247915
    -0.567418917837513    -0.922610634457327    -0.009692120005570
     0.016787244252312    -0.009692119994985     0.046481032808546
3 16
    -0.267411704580199     0.567418917810590    -0.016787244252487
     0.567418917783561    -0.922610634464035    -0.009692119995185
    -0.016787244243132    -0.009692120011852     0.046481032808744
3 17
    -0.035694548583392     0.012440107514777     0.032174672091253
     0.012440042613563     0.002949917931467    -0.000165439453775
     0.032174695037684    -0.000165479197492     0.004384379711550
3 18
    -0.267411704581149     0.173312473597751     0.540563434173217
     0.173312473598220    -0.067287698015886    -0.312094444237246