Generated using dynaphopy

4 atoms

2 atom types


        0.0000000000         3.1900000572 xlo xhi
        0.0000000000         2.7626210760 ylo yhi
        0.0000000000         5.1890001297 zlo zhi
       -1.5950000286         0.0000000000         0.0000000000 xy xz yz

Masses

1        69.7230000000
2        14.0067000000

Atoms

1 1         1.5950000924         0.9208737104         0.0000000000
2 1        -0.0000000160         1.8417472827         2.5945000649
3 2         1.5950000924         0.9208737104         1.9458750486
4 2        -0.0000000160         1.8417472827         4.5403751135
