 108  108
1 1
    21.179852407220167    -0.019555614918363     0.006167190748915
    -0.019555614918363    21.009787034081583     0.045336591714852
     0.006167190748915     0.045336591714852    21.760186823038765
1 2
    -0.398073207371854     0.599854707414946     0.305714396891490
    -0.580299047025189    -1.187723357299638     0.024643543079548
    -0.311881597921561     0.325693012111307    -0.019456346142744
1 3
    -0.398073207371846    -0.580299047025190    -0.311881597921562
     0.599854707414946    -1.187723357299630     0.325693012111307
     0.305714396891490     0.024643543079548    -0.019456346142737
1 4
    -1.029558965336695     0.316899882123766    -0.395652986078409
    -0.863253872293939    -0.617798255103235    -0.078014765282226
     0.173861509662974    -0.091812573284281    -0.213344165709084
1 5
    -1.111291109269937    -0.326677712301012     0.138020088268632
     0.853476042085344    -0.733401669589816    -0.233880438838568
     0.089938589171917     0.053371222199747     0.084991641451485
1 6
    -0.807516214820600     0.009777807454020     0.257632915235054
     0.009777807460447    -0.722483528237023    -0.358458655974351
    -0.263800105978994     0.313122064273949     1.461863777335144
1 7
    -1.029558965336690    -0.863253872293939     0.173861509662975
     0.316899882123766    -0.617798255103230    -0.091812573284282
    -0.395652986078409    -0.078014765282226    -0.213344165709079
1 8
    -0.807516214820600     0.009777807460447    -0.263800105978994
     0.009777807454019    -0.722483528237023     0.313122064273949
     0.257632915235054    -0.358458655974350     1.461863777335145
1 9
    -1.111291109269939     0.853476042085344     0.089938589171917
    -0.326677712301011    -0.733401669589818     0.053371222199746
     0.138020088268632    -0.233880438838567     0.084991641451482
1 10
     0.245310368832576    -0.325952423319199     0.252063597124718
    -0.589672560577925    -0.209583779856591    -0.115073403077077
    -0.087689715553642    -0.028725116733889     0.634956018518730
1 11
     1.391792300329000    -0.372221388388244     0.218515635447082
     0.222695384976498     0.718308562823515     0.048249671702129
    -0.236088494962327     0.311275667842165    -0.022257042829030
1 12
     1.231487435666677     0.698173878436167    -0.470579238462023
     0.366977242293793    -0.208176941331484     0.293807074775001
     0.323778204270145    -0.042343663524098     0.330283231834560
1 13
     0.944834562358578    -0.686494945126563    -0.463358723919343
    -0.091578171786764     1.181948763791295     0.322459964567354
     0.129838270096920    -0.382663982447856    -0.138047885902445
1 14
     0.118988534797295    -0.006037353241658     0.376731548423026
    -0.337233989353292    -0.053761406713629    -0.018612200004867
     0.132560221885066    -0.129912787437122    -0.736416587689775
1 15
     1.804872831543867     0.692532317329408     0.086627167679499
     0.428812180130717     1.010244452703625    -0.003412051695943
    -0.262398480422108     0.067736550735680     0.335281334130992
1 16
    -0.272112815708033    -0.195341571016148     0.093847690043187
    -0.526538207115301     1.340301502807068    -0.275194874775090
    -0.456338426155491     0.172256450964740     0.639961894468046
1 17
     0.893640736303083     0.029000311823218    -0.338690764802022
    -0.234719825389474     2.143163263831413     0.118485454779098
     0.350088195978903    -0.039011434003296     0.301635143386482
1 18
    -0.574575529465281     0.166341173503010     0.244843088465892
     0.761257946821740    -0.138205993397539    -0.370709636270662
     0.106250224862504     0.071388314603739     0.390398183902137
1 19
     0.245310368832576    -0.589672560577925    -0.087689715553642
    -0.325952423319199    -0.209583779856591    -0.028725116733889
     0.252063597124718    -0.115073403077077     0.634956018518730
1 20
     1.231487435666679     0.366977242293793     0.323778204270144
     0.698173878436167    -0.208176941331482    -0.042343663524098
    -0.470579238462023     0.293807074775001     0.330283231834561
1 21
     1.391792300328999     0.222695384976497    -0.236088494962327
    -0.372221388388244     0.718308562823514     0.311275667842164
     0.218515635447082     0.048249671702129    -0.022257042829032
1 22
    -0.272112815708031    -0.526538207115300    -0.456338426155490
    -0.195341571016148     1.340301502807071     0.172256450964740
     0.093847690043187    -0.275194874775090     0.639961894468047
1 23
    -0.574575529465282     0.761257946821740     0.106250224862503
     0.166341173503011    -0.138205993397539     0.071388314603739
     0.244843088465893    -0.370709636270662     0.390398183902138
1 24
     0.893640736303082    -0.234719825389474     0.350088195978902
     0.029000311823218     2.143163263831412    -0.039011434003297
    -0.338690764802022     0.118485454779098     0.301635143386480
1 25
     0.944834562358579    -0.091578171786765     0.129838270096919
    -0.686494945126562     1.181948763791295    -0.382663982447856
    -0.463358723919343     0.322459964567354    -0.138047885902444
1 26
     1.804872831543866     0.428812180130717    -0.262398480422108
     0.692532317329408     1.010244452703624     0.067736550735679
     0.086627167679499    -0.003412051695942     0.335281334130990
1 27
     0.118988534797294    -0.337233989353292     0.132560221885065
    -0.006037353241659    -0.053761406713630    -0.129912787437123
     0.376731548423026    -0.018612200004867    -0.736416587689775
1 28
     0.989084728961884     0.375738665610654     1.602368660043744
     0.375738665587606     0.513334174945179    -1.114651165301130
     0.252634427822942    -0.126618467077114    -0.455131761600037
1 29
     0.084628473920684    -0.069518282980514    -1.780664282502113
    -0.069518282970800    -0.885381026163724    -0.863122549007239
    -0.223827519789883    -0.667344571163768    -0.278699091268192
1 30
     0.957396095893467    -0.306220343789834     0.178295683748994
    -0.306220343794648     0.908532776581811    -0.381107015592714
    -0.028806884694999    -0.103521108929213    -0.874954783849237
1 31
    -0.127508509459274     0.219606757146050     0.255064247100759
     0.219606757179830     0.739288417026214     0.188488688539449
     0.091910856705551     0.253895938442226    -0.394019950873553
1 32
    -0.988254372318332     0.367130519688672     0.128682421040082
     0.367130519677322     0.339045632980448    -0.399142553230841
    -0.453879094259010     0.232982852963210    -0.570381173952999
1 33
    -0.242578701924101    -0.586737340030080    -0.383746674829329
    -0.586737339999261    -0.005275785997912     0.467926193354685
     0.361968225975314    -0.041403693283398    -0.326552274178530
1 34
     0.230088542693906    -0.456144128803624    -0.306341244990943
    -0.456144128775939    -0.321693619559720     1.821685719165204
     0.482676523864591     0.350319291060179     0.582121262992061
1 35
     0.339997775688606     0.093965012213924    -0.317030252486168
     0.093965012188085    -0.469447135385039     0.125455360011416
    -0.199095361576673    -0.071860168820001    -0.081530659031609
1 36
     0.444818550968835     0.362179140944752     0.623371442874954
     0.362179140907805     0.869269149998411     0.154467322061216
    -0.283581174047838     0.173549926807936    -0.190495652668416
1 37
    -0.911391117657427     0.360467582551052     0.963609735912827
     0.360467582549388    -0.495158956067829    -0.386057142538309
    -0.816140194048232     0.641481896973174     1.702297957734524
1 38
    -1.079760526778087    -0.565649122730601    -0.688317951489487
    -0.565649122714652    -0.689047005046890    -0.150082052138927
     0.899965941564396     0.441835742932745     1.512952832391166
1 39
    -0.985445300034976     0.205181489931807    -0.275291763233514
     0.205181489970690     0.140784821366322    -0.279472595796598
    -0.083825781981963     0.242419141580098    -0.502406712282704
1 40
    -0.318465153013259     0.590262703598459     0.251854023422734
     0.590262703559815    -0.526195325657223     0.048614327197099
    -0.104384466353403    -0.378145963733984    -0.502406712281314
1 41
    -0.397186285378210    -0.091540938236000     0.342006360776466
    -0.091540938262679     0.840455639041831    -0.593125614756022
    -0.130985799745379     0.301009679835485     0.182981974623221
1 42
    -0.012528529992099    -0.498721777134262    -0.593860368212444
    -0.498721777132124    -0.588402903661182    -0.071083284636374
     0.235370282389561    -0.549839795264276    -0.087753475014675
1 43
    -0.296858863757207    -0.113640582578322    -0.067342045081753
    -0.113640582596440    -1.471948668074665     1.000311235928302
     0.214184140829755    -0.671141846821465     1.512952832391077
1 44
     0.136015906357399    -0.376503600329229    -0.258832919571624
    -0.376503600329523    -0.298733055810256     0.393827299994432
     0.470480907717790    -0.027242209241062    -0.421016387988250
1 45
     0.610321885006522     0.490144244927096     0.326174927476806
     0.490144244955522    -0.167052531337445     0.037067826746373
    -0.684665030372545    -0.000376646260712     0.182981974621749
1 46
     0.306872585740595    -0.018136746215928    -0.235972031072008
    -0.018136746191220     1.195546318163105     0.155478586547975
    -1.766500598659295     0.830366291395425    -0.455131761599490
1 47
     0.211284372858411    -0.467000722603485     0.062047112743232
    -0.467000722629125    -0.302889449712398     0.593169780241163
     1.730796699473861     0.645543649135996     0.582121262992713
1 48
     0.332404104439188     0.485137460477057     0.173924893500946
     0.485137460442970     0.279375803130697     0.206545115047144
     0.035703852660550     0.315136463691297    -0.394019950870619
1 49
     1.185943221396719    -0.174268583521592    -0.075248463807044
    -0.174268583516740     0.679985651079621    -0.076708052353986
    -0.419196197068576    -0.036144938090789    -0.874954783851108
1 50
     0.449500125559476     0.364882049592889     0.292089240724283
     0.364882049630917     0.864587575399731    -0.158813522142636
    -0.177913128536494     0.617089157330818    -0.190495652670180
1 51
     0.443527946633418    -0.190613434216378    -0.216840778388616
    -0.190613434249329    -0.691382434557104     0.292771821144034
     0.597109313065537    -0.098371241314693    -0.326552274178011
1 52
    -0.582674004801383    -0.454785594926196    -0.466023564404602
    -0.454785594935748    -0.218078547451808    -0.527512627998236
     0.142846189782993    -1.973661771333989    -0.278699091269371
1 53
    -0.348461963713125    -0.303517451382214     0.037314959872203
    -0.303517451356085     0.219012604012702    -0.208351723386175
     0.267162666044470    -0.211828558558614    -0.081530659032669
1 54
    -0.310723803687621     0.758303022795846     0.428708630831617
     0.758303022804360    -0.338484935638851    -0.276579377099315
    -0.410008796763028    -0.088129052255493    -0.570381173951780
1 55
    -2.575618550746190     0.090657792643087     0.117970046738502
     0.127220173652500    -1.699510742923396     0.096720320569676
     0.136372367924509     0.431078935670482   -13.047569584599771
1 56
    -0.390944947295380    -0.128603637290838    -0.025577749874857
    -0.118653887325106     0.226202573132998     0.230420586453387
     0.055681070080952     0.492134881490788     0.780030834155860
1 57
    -1.151739988344287     0.037945810677686    -0.092392303286420
    -0.008566320238204    -1.339444778122394    -0.080569376134208
    -0.192053463618545     0.062152951904293     0.260822933096267
1 58
     0.102246876752674    -0.403804851010480     0.166326241902607
    -0.393855101046044    -0.428946511243275     0.248515002655714
     0.291658721585230     0.140516779841105     0.771276209692840
1 59
     1.521142834027807     0.128044277037114     0.161983974838181
     0.081532146064549     1.581063553818653     0.301844923432067
     0.148902726791363     0.237405793016850     0.493081949726538
1 60
     0.218791503024625     0.275760604060799    -0.328310237154636
     0.312322985032167    -0.467325321212481     0.235351041035861
    -0.440561458329501     0.004721557783304    -0.999026760208769
1 61
    -0.673521570815162    -0.096221891260956    -0.069591671551041
    -0.142734022278573    -0.545737500829250    -0.221275547298882
     0.043150736827665    -0.299558744921331     0.598505094361381
1 62
    -0.022673392485758    -0.421261968226680     0.210340190416650
    -0.384699587162951    -0.212664376069535    -0.332071361604418
     0.304189090404597    -0.435800493454117    -0.897666914619222
1 63
    -0.111236116155544     0.517483863370267    -0.140748492028984
     0.527433613301659    -0.197190248588533    -0.478935589109230
    -0.347339791666260    -0.632651661331403    -0.198119091008191
1 64
     1.029463887152289     0.260561871636427    -0.048191820691066
     0.256471704943457     1.327797878117041     0.074132360026732
    -0.098841456286982    -0.207195682695290    -1.229466329418563
1 65
     1.268965677838709     0.065249516599118     0.299722243264107
     0.120624407492301    -0.217880694946461    -0.136267900314008
     0.380671886717268    -0.179648610624963    -0.173511789450428
1 66
     1.145081516453469    -0.325811322847499    -0.251530425200656
    -0.377096047121202    -0.181582269340011     0.163906742473157
    -0.281830421340351     0.037453867866543    -0.225488504776149
1 67
     0.339689009651176    -0.777800562441991    -0.227608023774494
    -0.722425671429519     0.525314163781876     0.136250542198749
    -0.402208676415271     0.210235552405453    -0.005567750246472
1 68
    -0.145749627027695     0.974374972687221    -0.056446768496104
     0.923090248422367     0.407548612433157     0.027898557397329
     0.164771658737544     0.187283536055899    -0.472534892678946
1 69
     0.610592806385119    -0.196574426883622     0.284054792860186
    -0.200664593598386     0.512363543211682    -0.186781313582102
     0.237437007874638    -0.020063204769602     0.033107675869871
1 70
     0.188371035064589    -0.571636563464405     0.307977193697255
    -0.622921287676633     0.961736581398047    -0.191805299870547
     0.117058762602632    -0.224737403922751    -0.405188914689891
1 71
    -0.294222321455552    -0.057852194699347    -0.235862972169301
    -0.061942361398329    -0.494327049246928     0.112648953555901
    -0.138595551587837     0.227258887465193     0.208325990766319
1 72
    -0.410485202254497     0.629488709414098    -0.072114219489970
     0.684863600365946     0.890736016399193     0.000017358114910
     0.021536789698362    -0.030586941780493    -0.922157928014164
1 73
    -0.434097215266921     0.493752647423377    -0.054018714332620
     0.461280433098293    -0.632848913713393    -0.179951438381180
    -0.147048397593806    -0.160653306766726    -0.542988748851088
1 74
    -0.690122862339988    -0.079928552102353     0.272722246136189
    -0.029245618377577    -0.928750538819301     0.197340905036534
     0.114052848211558     0.075774741720542    -0.181355330249665
1 75
    -0.182736618985227    -0.413824072022399    -0.218703525332765
    -0.432034791410215    -0.641606944314603    -0.266408322223322
     0.032995555942278    -0.167767678242799     0.211062662596014
1 76
    -1.453346265883501    -0.110682550440666    -0.061487276630878
    -0.059999616809301    -1.436986355708000     0.194018555345613
    -0.050865196311768     0.065148581753155    -0.519311368536199
1 77
    -0.698989489630497     0.237836837750660     0.436096500521824
     0.219626118389113     0.254574658746834     0.472674758455396
     0.188254906323873     0.314267448399110    -0.671776255493332
1 78
    -0.487511581933846    -0.127154331474527    -0.374609246239563
    -0.159626545741268     0.241445645216705     0.193261899877324
    -0.137389725366807     0.211937586267378     0.217238993397268
1 79
    -0.084342757098655     0.203303313332341    -0.217392975189668
     0.185092593959955    -0.579036580145526    -0.206266436231969
    -0.221250462268201    -0.146499770155858     0.231847534777412
1 80
     0.148585810522307    -0.317889994479483     0.428627960572396
    -0.350362208825455    -0.381619718183738    -0.013310461496771
     0.284438122962014    -0.051284279499088     0.313568506709447
1 81
     1.262749163331203     0.114586702013052    -0.211234969504875
     0.165269635716454     1.485016929635901    -0.391359460381696
    -0.063187651899156    -0.140923323475673     0.469047820575729
1 82
    -1.712136604456513    -0.023811190366759    -0.069934983039773
    -0.023811190334755    -1.277211183626427     0.139114316976569
     0.159211416233467     0.104804663630270    -0.129910409637847
1 83
    -1.118189704634338     0.600878676119480     0.207980681444464
     0.600878676104983    -0.290964369347608     0.097078909677278
     0.049156008980557    -0.133747323687762     0.378338563504931
1 84
    -0.735349558475378    -0.577067533432236    -0.138045704390976
    -0.577067533428437    -0.161972281867525    -0.005711443277792
    -0.208367422380392    -0.080266387673265     0.323190159830884
1 85
    -1.162080069100693    -0.240487910103612     0.021432447857640
    -0.240487910112061    -1.225573030180321    -0.149794370831189
     0.135698220046697     0.032541768292162    -0.289525276138986
1 86
    -1.418912295282070     0.118662932477078     0.032619115016163
     0.118662932484876    -1.071376685021043     0.016495204018057
    -0.102408365263181    -0.044370331611129     0.768201021692846
1 87
    -0.404619147645065     0.121824937892572    -0.054051551877953
     0.121824937854918     0.840952931667975    -0.289945688799491
    -0.033289847551368    -0.266962739473262     0.914536016450145
1 88
    -0.102722692404605     0.507510319978589     0.105065041174678
     0.507510319967059    -0.754991244520110     0.043336433874099
     0.310582686152203     0.212234744397807    -0.926676681292283
1 89
     0.018727656859582    -0.238893016277150     0.171036772413196
    -0.238893016271447    -1.711038410369351     0.124084384441683
    -0.049962902866712     0.118526294082376    -0.619911106580853
1 90
     0.267295278784521    -0.268617216287952    -0.276101818597411
    -0.268617216265129    -0.715812863090055     0.025342253920745
    -0.260619793351240     0.057239312042737     0.075901212865493
1 91
    -1.238307523022461     0.165374322458618    -0.181195795372486
     0.165374322454135    -1.487144578985689    -0.020237820925000
    -0.201090005451066     0.170170425300223    -0.848343649323460
1 92
    -0.804432771930681    -0.012507195026668     0.073577134389709
    -0.012507195042889     0.344824555845280    -0.114687661916228
     0.148819109936534     0.137880423394622    -0.786179423091801
1 93
    -0.768162319248050    -0.152867135688259     0.107618663022300
    -0.152867135706844    -1.349523808663439     0.056553996129690
     0.052270885255902     0.087016158993622     0.391706142434172
1 94
     0.266491775329604    -0.137733673653253    -0.103292227180137
    -0.137733673633680    -0.994989330732031     0.139333309961189
    -0.002395841850555    -0.082405795607465     0.299754771874035
1 95
    -0.244542824168686    -0.528959061840912    -0.135605305812694
    -0.528959061824084    -0.145559204865129     0.236853449640640
    -0.054099417215759     0.139720450737787    -0.764624415502419
1 96
     0.336509397019625     0.666692776691450     0.238897518408838
     0.666692776699929    -0.088591613430171     0.184828127783113
     0.056495258941420    -0.052868805001260    -0.672847729611627
1 97
    -1.071589167540756     0.626642678844290     0.028402996484893
     0.626642678845839    -0.316772225482802    -0.266946256639729
     0.001469929230839    -0.204398581361692    -0.854109908278776
1 98
    -0.930376551942817    -0.922444918452211    -0.034993837882671
    -0.922444918455698    -0.488238679605637    -0.178181474299935
     0.164119347912068    -0.128160075410580     0.294163197588062
1 99
    -1.389814339448038     0.295802206666953     0.006590853942260
     0.295802206663299    -1.318229439032550    -0.037515669733773
    -0.165589266759397    -0.066954201045196    -0.740603530129253
1 100
    -8.444507184000962     4.811853149294659    -2.958875986639379
     4.811853149278862    -2.910882415556288     1.734421662677025
    -3.130884052652360     1.556820166546103    -2.592676689129885
1 101
    -8.463872287713174    -4.635407038840234     3.034061764643883
    -4.635407038819420    -2.946223869908977     1.409256802941914
     3.134911547849368     1.381394004995055    -3.561606040085734
1 102
     1.111450007002420    -0.176446378473093    -0.075185843562375
    -0.176446378462453     0.374538660371110    -0.620787874618289
    -0.004027556166146    -0.592011657461244    -0.270071676329361
1 103
     0.729803846831989    -0.397518116623059     0.522640444713416
    -0.397518116638312     0.857327506964359     0.386897185985796
     0.293487214009062     0.481166525102742     0.434595130205521
1 104
     1.471622220065134     0.095140772599614    -0.244008225743936
     0.095140772587999     0.080742064678069    -0.315305472204899
    -0.149909864590901    -0.115306125616706     0.068587573057850
1 105
     0.430223125451701     0.302377365485225    -0.278632224960205
     0.302377365500959     0.869409344028205     0.159265079318252
    -0.143577369015776     0.389328322450277     0.927014435454744
1 106
    -0.086749117617549     0.087383728891969     0.319139372921748
     0.087383728891780   -10.946034000121967    -3.343624965086198
     0.154489233702078    -3.586964212530067    -2.188660310098215
1 107
     0.765036070664898     0.506299458652907    -0.468809219322582
     0.506299458655136     1.296290893786746     0.246219782440686
    -0.444771783975641     0.200514624801029    -0.724482159694579
1 108
     0.495348070878422    -0.593682940988004     0.149669917949388
    -0.593682940994575     1.333186567321422     0.343657798545799
     0.290282630840298     0.285058351712822     0.736866496510491
2 1
    -0.398073207371846    -0.580299047025190    -0.311881597921562
     0.599854707414946    -1.187723357299630     0.325693012111307
     0.305714396891490     0.024643543079548    -0.019456346142737
2 2
    21.179852407220167    -0.019555614918362     0.006167190748915
    -0.019555614918362    21.009787034081583     0.045336591714852
     0.006167190748915     0.045336591714852    21.760186823038765
2 3
    -0.398073207371854     0.599854707414946     0.305714396891490
    -0.580299047025189    -1.187723357299638     0.024643543079548
    -0.311881597921561     0.325693012111307    -0.019456346142744
2 4
    -0.807516214820600     0.009777807454020     0.257632915235054
     0.009777807460447    -0.722483528237023    -0.358458655974351
    -0.263800105978994     0.313122064273949     1.461863777335144
2 5
    -1.029558965336695     0.316899882123766    -0.395652986078409
    -0.863253872293939    -0.617798255103235    -0.078014765282226
     0.173861509662974    -0.091812573284281    -0.213344165709084
2 6
    -1.111291109269937    -0.326677712301012     0.138020088268632
     0.853476042085344    -0.733401669589816    -0.233880438838568
     0.089938589171917     0.053371222199747     0.084991641451485
2 7
    -1.111291109269939     0.853476042085344     0.089938589171917
    -0.326677712301011    -0.733401669589818     0.053371222199746
     0.138020088268632    -0.233880438838567     0.084991641451482
2 8
    -1.029558965336690    -0.863253872293939     0.173861509662975
     0.316899882123766    -0.617798255103230    -0.091812573284282
    -0.395652986078409    -0.078014765282226    -0.213344165709079
2 9
    -0.807516214820600     0.009777807460447    -0.263800105978994
     0.009777807454019    -0.722483528237023     0.313122064273949
     0.257632915235054    -0.358458655974350     1.461863777335145
2 10
     1.231487435666677     0.698173878436167    -0.470579238462023
     0.366977242293793    -0.208176941331484     0.293807074775001
     0.323778204270145    -0.042343663524098     0.330283231834560
2 11
     0.245310368832576    -0.325952423319199     0.252063597124718
    -0.589672560577925    -0.209583779856591    -0.115073403077077
    -0.087689715553642    -0.028725116733889     0.634956018518730
2 12
     1.391792300329000    -0.372221388388244     0.218515635447082
     0.222695384976498     0.718308562823515     0.048249671702129
    -0.236088494962327     0.311275667842165    -0.022257042829030
2 13
     1.804872831543867     0.692532317329408     0.086627167679499
     0.428812180130717     1.010244452703625    -0.003412051695943
    -0.262398480422108     0.067736550735680     0.335281334130992
2 14
     0.944834562358578    -0.686494945126563    -0.463358723919343
    -0.091578171786764     1.181948763791295     0.322459964567354
     0.129838270096920    -0.382663982447856    -0.138047885902445
2 15
     0.118988534797295    -0.006037353241658     0.376731548423026
    -0.337233989353292    -0.053761406713629    -0.018612200004867
     0.132560221885066    -0.129912787437122    -0.736416587689775
2 16
    -0.574575529465281     0.166341173503010     0.244843088465892
     0.761257946821740    -0.138205993397539    -0.370709636270662
     0.106250224862504     0.071388314603739     0.390398183902137
2 17
    -0.272112815708033    -0.195341571016148     0.093847690043187
    -0.526538207115301     1.340301502807068    -0.275194874775090
    -0.456338426155491     0.172256450964740     0.639961894468046
2 18
     0.893640736303083     0.029000311823218    -0.338690764802022
    -0.234719825389474     2.143163263831413     0.118485454779098
     0.350088195978903    -0.039011434003296     0.301635143386482
2 19
     1.391792300328999     0.222695384976497    -0.236088494962327
    -0.372221388388244     0.718308562823514     0.311275667842164
     0.218515635447082     0.048249671702129    -0.022257042829032
2 20
     0.245310368832576    -0.589672560577925    -0.087689715553642
    -0.325952423319199    -0.209583779856591    -0.028725116733889
     0.252063597124718    -0.115073403077077     0.634956018518730
2 21
     1.231487435666679     0.366977242293793     0.323778204270144
     0.698173878436167    -0.208176941331482    -0.042343663524098
    -0.470579238462023     0.293807074775001     0.330283231834561
2 22
     0.893640736303082    -0.234719825389474     0.350088195978902
     0.029000311823218     2.143163263831412    -0.039011434003297
    -0.338690764802022     0.118485454779098     0.301635143386480
2 23
    -0.272112815708031    -0.526538207115300    -0.456338426155490
    -0.195341571016148     1.340301502807071     0.172256450964740
     0.093847690043187    -0.275194874775090     0.639961894468047
2 24
    -0.574575529465282     0.761257946821740     0.106250224862503
     0.166341173503011    -0.138205993397539     0.071388314603739
     0.244843088465893    -0.370709636270662     0.390398183902138
2 25
     0.118988534797294    -0.337233989353292     0.132560221885065
    -0.006037353241659    -0.053761406713630    -0.129912787437123
     0.376731548423026    -0.018612200004867    -0.736416587689775
2 26
     0.944834562358579    -0.091578171786765     0.129838270096919
    -0.686494945126562     1.181948763791295    -0.382663982447856
    -0.463358723919343     0.322459964567354    -0.138047885902444
2 27
     1.804872831543866     0.428812180130717    -0.262398480422108
     0.692532317329408     1.010244452703624     0.067736550735679
     0.086627167679499    -0.003412051695942     0.335281334130990
2 28
     0.957396095893467    -0.306220343789834     0.178295683748994
    -0.306220343794648     0.908532776581811    -0.381107015592714
    -0.028806884694999    -0.103521108929213    -0.874954783849237
2 29
     0.989084728961884     0.375738665610654     1.602368660043744
     0.375738665587606     0.513334174945179    -1.114651165301130
     0.252634427822942    -0.126618467077114    -0.455131761600037
2 30
     0.084628473920684    -0.069518282980514    -1.780664282502113
    -0.069518282970800    -0.885381026163724    -0.863122549007239
    -0.223827519789883    -0.667344571163768    -0.278699091268192
2 31
    -0.242578701924101    -0.586737340030080    -0.383746674829329
    -0.586737339999261    -0.005275785997912     0.467926193354685
     0.361968225975314    -0.041403693283398    -0.326552274178530
2 32
    -0.127508509459274     0.219606757146050     0.255064247100759
     0.219606757179830     0.739288417026214     0.188488688539449
     0.091910856705551     0.253895938442226    -0.394019950873553
2 33
    -0.988254372318332     0.367130519688672     0.128682421040082
     0.367130519677322     0.339045632980448    -0.399142553230841
    -0.453879094259010     0.232982852963210    -0.570381173952999
2 34
     0.444818550968835     0.362179140944752     0.623371442874954
     0.362179140907805     0.869269149998411     0.154467322061216
    -0.283581174047838     0.173549926807936    -0.190495652668416
2 35
     0.230088542693906    -0.456144128803624    -0.306341244990943
    -0.456144128775939    -0.321693619559720     1.821685719165204
     0.482676523864591     0.350319291060179     0.582121262992061
2 36
     0.339997775688606     0.093965012213924    -0.317030252486168
     0.093965012188085    -0.469447135385039     0.125455360011416
    -0.199095361576673    -0.071860168820001    -0.081530659031609
2 37
    -0.985445300034976     0.205181489931807    -0.275291763233514
     0.205181489970690     0.140784821366322    -0.279472595796598
    -0.083825781981963     0.242419141580098    -0.502406712282704
2 38
    -0.911391117657427     0.360467582551052     0.963609735912827