   4    4
1 1
    25.916597641763623    -0.000000000000001    -0.000000000000000
    -0.000000000000004    25.916597641763634    -0.000000000000000
     0.000000000000001     0.000000000000000    28.261794350406799
1 2
     0.125446258285975    -0.000000000000000    -0.000000000000000
    -0.000000000000000     0.125446258285975    -0.000000000000000
     0.000000000000000     0.000000000000000    -1.616581566247245
1 3
    -1.983875212524089     0.000000000000000    -0.000000000000000
     0.000000000000000    -1.983875212524089     0.000000000000000
    -0.000000000000000    -0.000000000000000   -16.134793440735983
1 4
   -24.058168687524830     0.000000000000001     0.000000000000000
     0.000000000000002   -24.058168687524830     0.000000000000000
    -0.000000000000001    -0.000000000000001   -10.510419343425458
2 1
     0.125446270690709     0.000000020198634    -0.000000000000000
     0.000000020198634     0.125446245881245    -0.000000000000000
     0.000000000000000    -0.000000000000000    -1.616581566247245
2 2
    25.916600204522418     0.000004172941322    -0.000000000000000
     0.000004172941317    25.916595079005766    -0.000000000000000
     0.000000000000001    -0.000000000000001    28.261794350406799
2 3
   -24.058171066513154    -0.000003873707787     0.000000000000000
    -0.000003873707785   -24.058166308537366    -0.000000000000000
    -0.000000000000001     0.000000000000001   -10.510419343425458
2 4
    -1.983875408699286    -0.000000319432163     0.000000000000000
    -0.000000319432163    -1.983875016348964     0.000000000000001
    -0.000000000000000     0.000000000000000   -16.134793440735983
3 1
    -1.983874222209967     0.000000000000000     0.000000000000000
     0.000000000000000    -1.983874222209967    -0.000000000000000
    -0.000000000000000    -0.000000000000000   -16.134793815039643
3 2
   -24.058204798975737     0.000000000000001     0.000000000000000
     0.000000000000002   -24.058204798975744     0.000000000000000
    -0.000000000000001    -0.000000000000000   -10.510432988597339
3 3
    25.916633753349856    -0.000000000000001     0.000000000000001
    -0.000000000000003    25.916633753349860     0.000000000000000
     0.000000000000001     0.000000000000001    28.261807995552932
3 4
     0.125445267835853    -0.000000000000000    -0.000000000000000
    -0.000000000000000     0.125445267835853     0.000000000000000
     0.000000000000000     0.000000000000000    -1.616581191918140
4 1
   -24.058207177967638    -0.000003873713604     0.000000000000000
    -0.000003873713602   -24.058202419984706    -0.000000000000000
    -0.000000000000001     0.000000000000000   -10.510432988597339
4 2
    -1.983874418385065    -0.000000319432003     0.000000000000000
    -0.000000319432003    -1.983874026034939    -0.000000000000000
    -0.000000000000000     0.000000000000000   -16.134793815039643
4 3
     0.125445280240489     0.000000020198475     0.000000000000000
     0.000000020198475     0.125445255431221     0.000000000000000
     0.000000000000000    -0.000000000000000    -1.616581191918140
4 4
    25.916636316112214     0.000004172947131     0.000000000000001
     0.000004172947129    25.916631190588426    -0.000000000000000
     0.000000000000001    -0.000000000000001    28.261807995552932