   4
   1   1
    25.916597650668230     0.000000000000000     0.000000000000002
     0.000000000000000    25.916597650668219     0.000000000000008
     0.000000000000000     0.000000000000001    28.261794344055748
   1   2
     0.125446258728418     0.000000000000000     0.000000000000000
     0.000000000000000     0.125446258728418    -0.000000000000002
     0.000000000000000     0.000000000000000    -1.616581566368812
   1   3
    -1.983875214786150    -0.000000000000000    -0.000000000000001
    -0.000000000000000    -1.983875214786149    -0.000000000000005
    -0.000000000000000    -0.000000000000000   -16.134793440025433
   1   4
   -24.058168694610156     0.000000000000000    -0.000000000000001
    -0.000000000000000   -24.058168694610142    -0.000000000000002
    -0.000000000000001    -0.000000000000000   -10.510419337660780
   2   1
     0.125446257937697     0.000000000456523     0.000000000000002
     0.000000000456523     0.125446259519138    -0.000000000000001
    -0.000000000000000     0.000000000000000    -1.616581566368812
   2   2
    25.916597487309165     0.000000094315396    -0.000000000000006
     0.000000094315396    25.916597814027284     0.000000000000006
    -0.000000000000000     0.000000000000001    28.261794344055748
   2   3
   -24.058168542965252    -0.000000087552225     0.000000000000001
    -0.000000087552225   -24.058168846255050    -0.000000000000002
     0.000000000000000    -0.000000000000001   -10.510419337660780
   2   4
    -1.983875202281268    -0.000000007219697     0.000000000000004
    -0.000000007219697    -1.983875227291031    -0.000000000000003
     0.000000000000000    -0.000000000000000   -16.134793440025433
   3   1
    -1.983874223804460     0.000000000000000    -0.000000000000000
    -0.000000000000000    -1.983874223804459    -0.000000000000009
    -0.000000000000000    -0.000000000000000   -16.134793811767043
   3   2
   -24.058204837070324    -0.000000000000000    -0.000000000000000
    -0.000000000000000   -24.058204837070317    -0.000000000000005
    -0.000000000000001    -0.000000000000000   -10.510432992818769
   3   3
    25.916633793266783     0.000000000000000    -0.000000000000000
    -0.000000000000000    25.916633793266776     0.000000000000012
     0.000000000000001     0.000000000000001    28.261807996089090
   3   4
     0.125445267608340    -0.000000000000000    -0.000000000000000
    -0.000000000000000     0.125445267608340     0.000000000000001
     0.000000000000000     0.000000000000000    -1.616581191502348
   4   1
   -24.058204685425196    -0.000000087552353     0.000000000000005
    -0.000000087552353   -24.058204988715445    -0.000000000000003
    -0.000000000000000    -0.000000000000001   -10.510432992818769
   4   2
    -1.983874211299584    -0.000000007219693     0.000000000000008
    -0.000000007219693    -1.983874236309336    -0.000000000000004
     0.000000000000000    -0.000000000000000   -16.134793811767043
   4   3
     0.125445266817626     0.000000000456519    -0.000000000000001
     0.000000000456519     0.125445268399055     0.000000000000000
    -0.000000000000000     0.000000000000000    -1.616581191502348
   4   4
    25.916633629907494     0.000000094315528    -0.000000000000011
     0.000000094315528    25.916633956626065     0.000000000000006
    -0.000000000000000     0.000000000000001    28.261807996089090
