 108
   1   1
    26.917017221015382     0.000000000000000    -0.000000000000002
    -0.000000000000001    26.917017221015371     0.000000000000022
     0.000000000000001     0.000000000000002    27.572845618277764
   1   2
    -0.453861570241550    -0.298962338180656     0.210565363113213
     0.298983225792647     0.120281462115785    -0.007566172498389
    -0.210582141674781    -0.007565991921243     0.114835756528015
   1   3
    -0.453861570241550     0.298962338180656    -0.210565363113215
    -0.298983225792647     0.120281462115785    -0.007566172498389
     0.210582141674781    -0.007565991921243     0.114835756528015
   1   4
    -0.023245252460263    -0.050366777336146    -0.098730183991122
     0.547578788726440    -0.310334855665502     0.186138040628620
     0.111843412073549    -0.178586487546725     0.114835756528016
   1   5
    -0.023245252460263     0.050366777336146     0.098730183991121
    -0.547578788726440    -0.310334855665503     0.186138040628620
    -0.111843412073549    -0.178586487546724     0.114835756528016
   1   6
    -0.000000000000000    -0.000000000000000    -0.000000000000001
    -0.000000000000000     0.000000000000000    -0.000000000000000
     0.000000000000000    -0.000000000000000     0.000000000000001
   1   7
    -0.023263339486835     0.547589226674014     0.111835179122092
    -0.050356335209742    -0.310316768638931    -0.178571868130231
    -0.098738729601232     0.186152479467968     0.114835756528015
   1   8
    -0.000000000000000    -0.000000000000000    -0.000000000000001
    -0.000000000000000    -0.000000000000000    -0.000000000000000
    -0.000000000000000     0.000000000000000     0.000000000000001
   1   9
    -0.023263339486835    -0.547589226674014    -0.111835179122093
     0.050356335209742    -0.310316768638931    -0.178571868130231
     0.098738729601232     0.186152479467968     0.114835756528014
   1  10
     0.000000000000000    -0.000000000000000    -0.000000000000001
    -0.000000000000000    -0.000000000000000    -0.000000000000000
    -0.000000000000000     0.000000000000000     0.000000000000001
   1  11
     0.000000000000000     0.000000000000000    -0.000000000000000
     0.000000000000000     0.000000000000000    -0.000000000000000
     0.000000000000000    -0.000000000000000     0.000000000000001
   1  12
    -0.000000000000000    -0.000000000000000    -0.000000000000001
    -0.000000000000000     0.000000000000000    -0.000000000000000
     0.000000000000000    -0.000000000000000    -0.000000000000000
   1  13
    -0.000000000000000    -0.000000000000000    -0.000000000000001
     0.000000000000000     0.000000000000000    -0.000000000000000
    -0.000000000000000    -0.000000000000000    -0.000000000000000
   1  14
     0.000000000000000    -0.000000000000000    -0.000000000000000
     0.000000000000000     0.000000000000000    -0.000000000000000
     0.000000000000000    -0.000000000000000    -0.000000000000000
   1  15
    -0.000000000000000    -0.000000000000000    -0.000000000000000
     0.000000000000000     0.000000000000000    -0.000000000000000
    -0.000000000000000     0.000000000000000     0.000000000000000
   1  16
    -0.000000000000000    -0.000000000000000    -0.000000000000000
    -0.000000000000000    -0.000000000000000    -0.000000000000000
    -0.000000000000000    -0.000000000000000     0.000000000000001
   1  17
     0.000000000000000    -0.000000000000000    -0.000000000000001
    -0.000000000000000    -0.000000000000000    -0.000000000000000
    -0.000000000000000    -0.000000000000000     0.000000000000001
   1  18
    -0.000000000000000    -0.000000000000000    -0.000000000000001
     0.000000000000000    -0.000000000000000    -0.000000000000000
    -0.000000000000000     0.000000000000000     0.000000000000001
   1  19
    -0.000000000000000    -0.000000000000000    -0.000000000000000
     0.000000000000000    -0.000000000000000    -0.000000000000000
    -0.000000000000000    -0.000000000000000     0.000000000000001
   1  20
    -0.000000000000000     0.000000000000000    -0.000000000000001
    -0.000000000000000    -0.000000000000000    -0.000000000000000
    -0.000000000000000     0.000000000000000     0.000000000000001
   1  21
    -0.000000000000000    -0.000000000000000    -0.000000000000001
     0.000000000000000     0.000000000000000    -0.000000000000000
    -0.000000000000000    -0.000000000000000     0.000000000000001
   1  22
     0.000000000000000    -0.000000000000000    -0.000000000000000
     0.000000000000000     0.000000000000000    -0.000000000000000
    -0.000000000000000    -0.000000000000000    -0.000000000000000
   1  23
    -0.000000000000000    -0.000000000000000    -0.000000000000001
     0.000000000000000     0.000000000000000    -0.000000000000000
     0.000000000000000    -0.000000000000000    -0.000000000000000
   1  24
    -0.000000000000000    -0.000000000000000    -0.000000000000001
     0.000000000000000     0.000000000000000    -0.000000000000000
     0.000000000000000     0.000000000000000     0.000000000000000
   1  25
    -0.000000000000000    -0.000000000000000    -0.000000000000001
     0.000000000000000     0.000000000000000    -0.000000000000000
    -0.000000000000000    -0.000000000000000     0.000000000000000
   1  26
     0.000000000000000    -0.000000000000000    -0.000000000000000
    -0.000000000000000    -0.000000000000000    -0.000000000000000
     0.000000000000000    -0.000000000000000     0.000000000000001
   1  27
    -0.000000000000000    -0.000000000000000    -0.000000000000001
     0.000000000000000    -0.000000000000000    -0.000000000000000
    -0.000000000000000    -0.000000000000000    -0.000000000000000
   1  28
    -0.024783937632065     0.079194912152842     0.560902785174437
     0.079194912818423     0.066662470451993    -0.323837375370494
    -0.082172244088162     0.047442167044856    -0.269437965747993
   1  29
    -0.024783937632065    -0.079194912152842    -0.560902785174439
    -0.079194912818423     0.066662470451993    -0.323837375370494
     0.082172244088162     0.047442167044856    -0.269437965747993
   1  30
     0.000000000000000     0.000000000000000    -0.000000000000001
    -0.000000000000000    -0.000000000000000    -0.000000000000000
    -0.000000000000000    -0.000000000000000    -0.000000000000001
   1  31
     0.000000000000000     0.000000000000000    -0.000000000000001
    -0.000000000000000    -0.000000000000000    -0.000000000000000
     0.000000000000000     0.000000000000000    -0.000000000000000
   1  32
    -0.000000000000000     0.000000000000000    -0.000000000000000
    -0.000000000000000     0.000000000000000    -0.000000000000000
    -0.000000000000000    -0.000000000000000     0.000000000000000
   1  33
    -0.000000000000000     0.000000000000000    -0.000000000000001
    -0.000000000000000    -0.000000000000000    -0.000000000000000
    -0.000000000000000    -0.000000000000000    -0.000000000000000
   1  34
     0.112385674494022     0.000000000000000    -0.000000000000001
    -0.000000000000000    -0.070507141674093     0.647674750740986
     0.000000000000000    -0.094884334089712    -0.269437965747993
   1  35
    -0.000000000000000     0.000000000000000    -0.000000000000001
     0.000000000000000     0.000000000000000    -0.000000000000000
    -0.000000000000000    -0.000000000000000    -0.000000000000001
   1  36
     0.000000000000000     0.000000000000000    -0.000000000000001
    -0.000000000000000     0.000000000000000    -0.000000000000000
    -0.000000000000000    -0.000000000000000    -0.000000000000000
   1  37
     0.000000000000000    -0.000000000000000    -0.000000000000001
    -0.000000000000000     0.000000000000000    -0.000000000000000
    -0.000000000000000    -0.000000000000000    -0.000000000000001
   1  38
    -0.000000000000000     0.000000000000000    -0.000000000000001
    -0.000000000000000     0.000000000000000    -0.000000000000000
     0.000000000000000    -0.000000000000000    -0.000000000000001
   1  39
     0.000000000000000     0.000000000000000    -0.000000000000000
    -0.000000000000000    -0.000000000000000    -0.000000000000000
    -0.000000000000000    -0.000000000000000     0.000000000000000
   1  40
     0.000000000000000     0.000000000000000    -0.000000000000001
    -0.000000000000000    -0.000000000000000    -0.000000000000000
     0.000000000000000     0.000000000000000    -0.000000000000000
   1  41
    -0.000000000000000     0.000000000000000    -0.000000000000001
    -0.000000000000000     0.000000000000000    -0.000000000000000
    -0.000000000000000     0.000000000000000     0.000000000000000
   1  42
    -0.000000000000000     0.000000000000000    -0.000000000000000
    -0.000000000000000    -0.000000000000000    -0.000000000000000
    -0.000000000000000    -0.000000000000000    -0.000000000000001
   1  43
    -0.000000000000000     0.000000000000000    -0.000000000000001
    -0.000000000000000    -0.000000000000000    -0.000000000000000
    -0.000000000000000     0.000000000000000     0.000000000000000
   1  44
    -0.000000000000000     0.000000000000000    -0.000000000000001
     0.000000000000000     0.000000000000000    -0.000000000000000
    -0.000000000000000    -0.000000000000000    -0.000000000000000
   1  45
     0.000000000000000     0.000000000000000    -0.000000000000001
     0.000000000000000     0.000000000000000    -0.000000000000000
    -0.000000000000000    -0.000000000000000    -0.000000000000001
   1  46
    -0.024875087324376     0.079243207896995     0.082152360704193
     0.079243208562982     0.066627087881691    -0.047430687766441
    -0.560813015459742     0.323785544080125    -0.269424049292986
   1  47
    -0.024875087324376    -0.079243207896995    -0.082152360704194
    -0.079243208562982     0.066627087881691    -0.047430687766441
     0.560813015459743     0.323785544080125    -0.269424049292986
   1  48
    -0.000000000000000     0.000000000000000    -0.000000000000000
     0.000000000000000    -0.000000000000000    -0.000000000000000
    -0.000000000000000    -0.000000000000000    -0.000000000000000
   1  49
     0.000000000000000     0.000000000000000    -0.000000000000001
    -0.000000000000000     0.000000000000000    -0.000000000000000
    -0.000000000000000     0.000000000000000    -0.000000000000000
   1  50
     0.000000000000000     0.000000000000000    -0.000000000000001
     0.000000000000000     0.000000000000000    -0.000000000000000
    -0.000000000000000     0.000000000000000     0.000000000000001
   1  51
    -0.000000000000000     0.000000000000000    -0.000000000000000
    -0.000000000000000    -0.000000000000000    -0.000000000000000
    -0.000000000000000    -0.000000000000000    -0.000000000000000
   1  52
     0.112378175484724     0.000000000000000    -0.000000000000001
    -0.000000000000000    -0.070626174927410     0.094861375532882
     0.000000000000000    -0.647571088160250    -0.269424049292987
   1  53
     0.000000000000000     0.000000000000000    -0.000000000000001
    -0.000000000000000     0.000000000000000    -0.000000000000000
     0.000000000000000     0.000000000000000    -0.000000000000000
   1  54
     0.000000000000000     0.000000000000000    -0.000000000000001
     0.000000000000000     0.000000000000000    -0.000000000000000
    -0.000000000000000    -0.000000000000000     0.000000000000000
   1  55
    -1.983874547720598    -0.000000000000000     0.000000000000001
     0.000000000000000    -1.983874547720597    -0.000000000000013
    -0.000000000000000    -0.000000000000000   -16.134793658703689
   1  56
    -0.000000000000000    -0.000000000000000     0.000000000000001
     0.000000000000000     0.000000000000000    -0.000000000000000
     0.000000000000000     0.000000000000000    -0.000000000000000
   1  57
    -0.000000000000000    -0.000000000000000     0.000000000000001
     0.000000000000000    -0.000000000000000    -0.000000000000000
     0.000000000000000     0.000000000000000    -0.000000000000000
   1  58
    -0.000000000000000    -0.000000000000000     0.000000000000001
    -0.000000000000000     0.000000000000000    -0.000000000000000
    -0.000000000000000     0.000000000000000    -0.000000000000000
   1  59
    -0.000000000000000     0.000000000000000     0.000000000000001
     0.000000000000000     0.000000000000000    -0.000000000000000
    -0.000000000000000     0.000000000000000    -0.000000000000000
   1  60
    -0.000000000000000    -0.000000000000000     0.000000000000001
    -0.000000000000000     0.000000000000000    -0.000000000000000
    -0.000000000000000     0.000000000000000     0.000000000000001
   1  61
    -0.000000000000000     0.000000000000000     0.000000000000000
    -0.000000000000000     0.000000000000000    -0.000000000000000
     0.000000000000000     0.000000000000000     0.000000000000001
   1  62
    -0.000000000000000    -0.000000000000000     0.000000000000001
    -0.000000000000000    -0.000000000000000    -0.000000000000000
    -0.000000000000000     0.000000000000000    -0.000000000000000
   1  63
    -0.000000000000000    -0.000000000000000     0.000000000000000
    -0.000000000000000     0.000000000000000    -0.000000000000000
     0.000000000000000    -0.000000000000000     0.000000000000000
   1  64
    -0.000000000000000    -0.000000000000000     0.000000000000001
     0.000000000000000    -0.000000000000000    -0.000000000000000
    -0.000000000000000    -0.000000000000000    -0.000000000000000
   1  65
    -0.000000000000000    -0.000000000000000     0.000000000000001
     0.000000000000000     0.000000000000000    -0.000000000000000
     0.000000000000000     0.000000000000000     0.000000000000001
   1  66
    -0.000000000000000    -0.000000000000000     0.000000000000000
    -0.000000000000000    -0.000000000000000    -0.000000000000000
     0.000000000000000     0.000000000000000     0.000000000000000
   1  67
    -0.000000000000000    -0.000000000000000     0.000000000000000
    -0.000000000000000     0.000000000000000    -0.000000000000000
     0.000000000000000    -0.000000000000000    -0.000000000000001
   1  68
    -0.000000000000000    -0.000000000000000     0.000000000000000
    -0.000000000000000     0.000000000000000    -0.000000000000000
    -0.000000000000000    -0.000000000000000    -0.000000000000001
   1  69
    -0.000000000000000    -0.000000000000000     0.000000000000000
    -0.000000000000000     0.000000000000000    -0.000000000000000
    -0.000000000000000     0.000000000000000     0.000000000000001
   1  70
     0.000000000000000     0.000000000000000     0.000000000000000
    -0.000000000000000    -0.000000000000000    -0.000000000000000
    -0.000000000000000    -0.000000000000000    -0.000000000000000
   1  71
     0.000000000000000    -0.000000000000000     0.000000000000000
    -0.000000000000000    -0.000000000000000    -0.000000000000000
    -0.000000000000000     0.000000000000000    -0.000000000000000
   1  72
    -0.000000000000000    -0.000000000000000     0.000000000000000
    -0.000000000000000     0.000000000000000    -0.000000000000000
    -0.000000000000000    -0.000000000000000    -0.000000000000000
   1  73
     0.000000000000000    -0.000000000000000     0.000000000000001
    -0.000000000000000    -0.000000000000000    -0.000000000000000
    -0.000000000000000    -0.000000000000000    -0.000000000000001
   1  74
    -0.000000000000000    -0.000000000000000     0.000000000000001
     0.000000000000000     0.000000000000000    -0.000000000000000
     0.000000000000000     0.000000000000000    -0.000000000000000
   1  75
    -0.000000000000000    -0.000000000000000     0.000000000000000
     0.000000000000000    -0.000000000000000    -0.000000000000000
    -0.000000000000000     0.000000000000000     0.000000000000001
   1  76
    -0.000000000000000    -0.000000000000000     0.000000000000001
     0.000000000000000    -0.000000000000000    -0.000000000000000
    -0.000000000000000    -0.000000000000000     0.000000000000000
   1  77
    -0.000000000000000    -0.000000000000000     0.000000000000001
     0.000000000000000     0.000000000000000    -0.000000000000000
     0.000000000000000    -0.000000000000000     0.000000000000000
   1  78
    -0.000000000000000    -0.000000000000000     0.000000000000001
    -0.000000000000000     0.000000000000000    -0.000000000000000
    -0.000000000000000    -0.000000000000000    -0.000000000000001
   1  79
    -0.000000000000000    -0.000000000000000     0.000000000000001
     0.000000000000000    -0.000000000000000    -0.000000000000000
     0.000000000000000    -0.000000000000000    -0.000000000000000
   1  80
    -0.000000000000000    -0.000000000000000     0.000000000000001
     0.000000000000000    -0.000000000000000    -0.000000000000000
     0.000000000000000    -0.000000000000000    -0.000000000000000
   1  81
    -0.000000000000000     0.000000000000000     0.000000000000000
     0.000000000000000    -0.000000000000000    -0.000000000000000
     0.000000000000000    -0.000000000000000    -0.000000000000001
   1  82
     0.000000000000000    -0.000000000000000     0.000000000000000
     0.000000000000000     0.000000000000000    -0.000000000000000
    -0.000000000000000    -0.000000000000000     0.000000000000001
   1  83
    -0.000000000000000     0.000000000000000     0.000000000000001
    -0.000000000000000    -0.000000000000000    -0.000000000000000
     0.000000000000000    -0.000000000000000     0.000000000000000
   1  84
     0.000000000000000     0.000000000000000     0.000000000000000
     0.000000000000000     0.000000000000000    -0.000000000000000
    -0.000000000000000    -0.000000000000000     0.000000000000000
   1  85
     0.000000000000000     0.000000000000000     0.000000000000000
     0.000000000000000    -0.000000000000000    -0.000000000000000
    -0.000000000000000     0.000000000000000     0.000000000000000
   1  86
     0.000000000000000     0.000000000000000     0.000000000000001
     0.000000000000000     0.000000000000000    -0.000000000000000
     0.000000000000000    -0.000000000000000    -0.000000000000001
   1  87
     0.000000000000000     0.000000000000000     0.000000000000000
     0.000000000000000    -0.000000000000000    -0.000000000000000
     0.000000000000000    -0.000000000000000     0.000000000000000
   1  88
    -0.000000000000000     0.000000000000000     0.000000000000001
     0.000000000000000    -0.000000000000000    -0.000000000000000
     0.000000000000000     0.000000000000000     0.000000000000001
   1  89
     0.000000000000000     0.000000000000000     0.000000000000000
    -0.000000000000000     0.000000000000000    -0.000000000000000
     0.000000000000000    -0.000000000000000    -0.000000000000000
   1  90
    -0.000000000000000     0.000000000000000     0.000000000000000
    -0.000000000000000     0.000000000000000    -0.000000000000000
    -0.000000000000000    -0.000000000000000    -0.000000000000001
   1  91
     0.000000000000000    -0.000000000000000     0.000000000000000
    -0.000000000000000    -0.000000000000000    -0.000000000000000
     0.000000000000000     0.000000000000000     0.000000000000001
   1  92
    -0.000000000000000     0.000000000000000     0.000000000000000
    -0.000000000000000    -0.000000000000000    -0.000000000000000
     0.000000000000000    -0.000000000000000     0.000000000000001
   1  93
     0.000000000000000     0.000000000000000     0.000000000000000
     0.000000000000000     0.000000000000000    -0.000000000000000
    -0.000000000000000    -0.000000000000000    -0.000000000000001
   1  94
     0.000000000000000     0.000000000000000     0.000000000000000
     0.000000000000000    -0.000000000000000    -0.000000000000000
     0.000000000000000    -0.000000000000000    -0.000000000000001
   1  95
     0.000000000000000     0.000000000000000     0.000000000000001
     0.000000000000000     0.000000000000000    -0.000000000000000
     0.000000000000000    -0.000000000000000     0.000000000000000
   1  96
     0.000000000000000     0.000000000000000     0.000000000000000
    -0.000000000000000    -0.000000000000000    -0.000000000000000
    -0.000000000000000    -0.000000000000000     0.000000000000001
   1  97
    -0.000000000000000     0.000000000000000     0.000000000000000
     0.000000000000000    -0.000000000000000    -0.000000000000000
    -0.000000000000000     0.000000000000000     0.000000000000000
   1  98
     0.000000000000000     0.000000000000000     0.000000000000001
     0.000000000000000    -0.000000000000000    -0.000000000000000
    -0.000000000000000    -0.000000000000000     0.000000000000000
   1  99
     0.000000000000000     0.000000000000000     0.000000000000001
     0.000000000000000     0.000000000000000    -0.000000000000000
    -0.000000000000000    -0.000000000000000     0.000000000000001
   1 100
   -11.015832612392961     5.190176645588405    -3.661845729872079
     5.190176689208444    -5.022732820264566     2.114167626756622
    -3.662677724226107     2.114647961150672    -3.503493484538422
   1 101
   -11.015832612392963    -5.190176645588405     3.661845729872081
    -5.190176689208444    -5.022732820264566     2.114167626756622
     3.662677724226107     2.114647961150671    -3.503493484538423
   1 102
     0.000000000000000     0.000000000000000     0.000000000000000
    -0.000000000000000     0.000000000000000    -0.000000000000000
    -0.000000000000000    -0.000000000000000     0.000000000000000
   1 103
     0.000000000000000     0.000000000000000     0.000000000000001
     0.000000000000000    -0.000000000000000    -0.000000000000000
    -0.000000000000000    -0.000000000000000     0.000000000000000
   1 104
     0.000000000000000     0.000000000000000     0.000000000000001
    -0.000000000000000     0.000000000000000    -0.000000000000000
    -0.000000000000000    -0.000000000000000     0.000000000000001
   1 105
    -0.000000000000000     0.000000000000000     0.000000000000000
    -0.000000000000000     0.000000000000000    -0.000000000000000
     0.000000000000000    -0.000000000000000     0.000000000000000
   1 106
    -2.026182924200373     0.000000000000000     0.000000000000001
     0.000000000000000   -14.012382508457160    -4.228335253513252
    -0.000000000000000    -4.229295922301344    -3.503493484538422
   1 107
    -0.000000000000000     0.000000000000000     0.000000000000001
     0.000000000000000     0.000000000000000    -0.000000000000000
    -0.000000000000000    -0.000000000000000     0.000000000000000
   1 108
     0.000000000000000     0.000000000000000     0.000000000000001
     0.000000000000000     0.000000000000000    -0.000000000000000
     0.000000000000000     0.000000000000000    -0.000000000000000
   2   1
    -0.453861570241550     0.298962338180656    -0.210565363113213
    -0.298983225792647     0.120281462115785    -0.007566172498389
     0.210582141674781    -0.007565991921243     0.114835756528015
   2   2
    26.917017221015382    -0.000000000000000     0.000000000000002
     0.000000000000001    26.917017221015371     0.000000000000022
    -0.000000000000001     0.000000000000002    27.572845618277764
   2   3
    -0.453861570241550    -0.298962338180656     0.210565363113215
     0.298983225792647     0.120281462115785    -0.007566172498389
    -0.210582141674781    -0.007565991921243     0.114835756528015
   2   4
    -0.000000000000000     0.000000000000000     0.000000000000001
     0.000000000000000     0.000000000000000     0.000000000000000
    -0.000000000000000    -0.000000000000000     0.000000000000001
   2   5
    -0.023245252460263    -0.050366777336146    -0.098730183991121
     0.547578788726440    -0.310334855665503     0.186138040628620
     0.111843412073549    -0.178586487546724     0.114835756528016
   2   6
    -0.023245252460263     0.050366777336146     0.098730183991122
    -0.547578788726440    -0.310334855665502     0.186138040628620
    -0.111843412073549    -0.178586487546725     0.114835756528016
   2   7
    -0.023263339486835    -0.547589226674014    -0.111835179122092
     0.050356335209742    -0.310316768638931    -0.178571868130231
     0.098738729601232     0.186152479467968     0.114835756528015
   2   8
    -0.023263339486835     0.547589226674014     0.111835179122093
    -0.050356335209742    -0.310316768638931    -0.178571868130231
    -0.098738729601232     0.186152479467968     0.114835756528014
   2   9
    -0.000000000000000     0.000000000000000     0.000000000000001
     0.000000000000000    -0.000000000000000     0.000000000000000
     0.000000000000000     0.000000000000000     0.000000000000001
   2  10
     0.000000000000000    -0.000000000000000     0.000000000000000
    -0.000000000000000     0.000000000000000     0.000000000000000
    -0.000000000000000    -0.000000000000000     0.000000000000001
   2  11
     0.000000000000000     0.000000000000000     0.000000000000001
     0.000000000000000    -0.000000000000000     0.000000000000000
     0.000000000000000     0.000000000000000     0.000000000000001
   2  12
    -0.000000000000000     0.000000000000000     0.000000000000001
     0.000000000000000     0.000000000000000     0.000000000000000
    -0.000000000000000    -0.000000000000000    -0.000000000000000
   2  13
    -0.000000000000000     0.000000000000000     0.000000000000000
    -0.000000000000000     0.000000000000000     0.000000000000000
     0.000000000000000     0.000000000000000     0.000000000000000
   2  14
     0.000000000000000     0.000000000000000     0.000000000000000
    -0.000000000000000     0.000000000000000     0.000000000000000
    -0.000000000000000    -0.000000000000000    -0.000000000000000
   2  15
    -0.000000000000000     0.000000000000000     0.000000000000001
    -0.000000000000000     0.000000000000000     0.000000000000000
     0.000000000000000     0.000000000000000     0.000000000000000
   2  16
    -0.000000000000000     0.000000000000000     0.000000000000000
     0.000000000000000    -0.000000000000000     0.000000000000000
     0.000000000000000    -0.000000000000000     0.000000000000001
   2  17
    -0.000000000000000     0.000000000000000     0.000000000000001
    -0.000000000000000    -0.000000000000000     0.000000000000000
     0.000000000000000     0.000000000000000     0.000000000000001
   2  18
     0.000000000000000     0.000000000000000     0.000000000000001
     0.000000000000000    -0.000000000000000     0.000000000000000
     0.000000000000000    -0.000000000000000     0.000000000000001
   2  19
    -0.000000000000000    -0.000000000000000     0.000000000000001
     0.000000000000000    -0.000000000000000     0.000000000000000
     0.000000000000000     0.000000000000000     0.000000000000001
   2  20
    -0.000000000000000     0.000000000000000     0.000000000000000
    -0.000000000000000    -0.000000000000000     0.000000000000000
     0.000000000000000    -0.000000000000000     0.000000000000001
   2  21
    -0.000000000000000     0.000000000000000     0.000000000000001
    -0.000000000000000     0.000000000000000     0.000000000000000
     0.000000000000000    -0.000000000000000     0.000000000000001
   2  22
    -0.000000000000000     0.000000000000000     0.000000000000001
    -0.000000000000000     0.000000000000000     0.000000000000000
    -0.000000000000000     0.000000000000000     0.000000000000000
   2  23
    -0.000000000000000     0.000000000000000     0.000000000000001
    -0.000000000000000     0.000000000000000     0.000000000000000
    -0.000000000000000    -0.000000000000000    -0.000000000000000
   2  24
     0.000000000000000     0.000000000000000     0.000000000000000
    -0.000000000000000     0.000000000000000     0.000000000000000
     0.000000000000000    -0.000000000000000     0.000000000000000
   2  25
    -0.000000000000000     0.000000000000000     0.000000000000001
    -0.000000000000000     0.000000000000000     0.000000000000000
     0.000000000000000    -0.000000000000000     0.000000000000000
   2  26
    -0.000000000000000     0.000000000000000     0.000000000000001
    -0.000000000000000    -0.000000000000000     0.000000000000000
     0.000000000000000    -0.000000000000000    -0.000000000000000
   2  27
     0.000000000000000     0.000000000000000     0.000000000000000
     0.000000000000000    -0.000000000000000     0.000000000000000
    -0.000000000000000    -0.000000000000000     0.000000000000001
   2  28
     0.000000000000000    -0.000000000000000     0.000000000000001
     0.000000000000000    -0.000000000000000     0.000000000000000
     0.000000000000000    -0.000000000000000    -0.000000000000001
   2  29
    -0.024783937632065     0.079194912152842     0.560902785174439
     0.079194912818423     0.066662470451993    -0.323837375370494
    -0.082172244088162     0.047442167044856    -0.269437965747993
   2  30
    -0.024783937632065    -0.079194912152842    -0.560902785174437
    -0.079194912818423     0.066662470451993    -0.323837375370494
     0.082172244088162     0.047442167044856    -0.269437965747993
   2  31
     0.000000000000000    -0.000000000000000     0.000000000000001
     0.000000000000000    -0.000000000000000     0.000000000000000
    -0.000000000000000     0.000000000000000    -0.000000000000000
   2  32
    -0.000000000000000    -0.000000000000000     0.000000000000001
     0.000000000000000    -0.000000000000000     0.000000000000000
     0.000000000000000     0.000000000000000    -0.000000000000000
   2  33
    -0.000000000000000    -0.000000000000000     0.000000000000000
     0.000000000000000     0.000000000000000     0.000000000000000
     0.000000000000000     0.000000000000000     0.000000000000000
   2  34
    -0.000000000000000    -0.000000000000000     0.000000000000001
    -0.000000000000000     0.000000000000000     0.000000000000000
     0.000000000000000    -0.000000000000000    -0.000000000000001
   2  35
     0.112385674494022    -0.000000000000000     0.000000000000001
     0.000000000000000    -0.070507141674093     0.647674750740986