# Graphene cell with dimension 10 x 10 x 1 and a = 2.522
       2  atoms
         1  atom types

0  2.46  xlo xhi
0    2.13  ylo yhi
-1   1  zlo zhi
-1.23    0     0 xy xz yz

Atoms

1 1     0.00000000000000     0.00000000000000     0.2
2 1     1.23    0.71 0.2
