  64   64
1 1
    15.316730650876876     0.000000000000000     0.000000000000000
     0.000000000000000    15.316730650876874     0.000000000000000
     0.000000000000000    -0.000000000000000    15.316730650876874
1 2
    -0.000000000002576     0.000000000000000     0.000000000000000
     0.000000000000000    -0.000000000000888     0.000000000000000
     0.000000000000000     0.000000000000000    -0.000000000000888
1 3
    -0.000000000000888     0.000000000000000     0.000000000000000
     0.000000000000000    -0.000000000002576    -0.000000000000000
     0.000000000000000    -0.000000000000000    -0.000000000000888
1 4
    -0.000000000002620     0.000000000000000     0.000000000000000
     0.000000000000000    -0.000000000002620    -0.000000000000000
     0.000000000000000    -0.000000000000000    -0.000000000000799
1 5
    -0.000000000000888     0.000000000000000     0.000000000000000
    -0.000000000000000    -0.000000000000888    -0.000000000000000
     0.000000000000000    -0.000000000000000    -0.000000000002576
1 6
    -0.000000000002620     0.000000000000000    -0.000000000000000
     0.000000000000000    -0.000000000000799    -0.000000000000000
     0.000000000000000    -0.000000000000000    -0.000000000002620
1 7
    -0.000000000000799     0.000000000000000     0.000000000000000
    -0.000000000000000    -0.000000000002620    -0.000000000000000
     0.000000000000000    -0.000000000000000    -0.000000000002620
1 8
    -0.000000000002132     0.000000000000000     0.000000000000000
     0.000000000000000    -0.000000000002132     0.000000000000000
     0.000000000000000    -0.000000000000000    -0.000000000002132
1 9
     0.058758877050790    -0.180531146701436    -0.180531146701436
     0.180529053739176    -0.137954162992276    -0.193808432523393
     0.180529053739176    -0.193808432523393    -0.137954162992276
1 10
    -0.000000000001761     0.000000000000078     0.000000000000078
    -0.000000000000503    -0.000000000000529    -0.000000000000111
    -0.000000000000503    -0.000000000000111    -0.000000000000529
1 11
     0.058758877050790    -0.180531146701436     0.180531146701436
     0.180529053739176    -0.137954162992276     0.193808432523393
    -0.180529053739176     0.193808432523393    -0.137954162992276
1 12
    -0.000000000001761     0.000000000000078    -0.000000000000078
    -0.000000000000503    -0.000000000000529     0.000000000000111
     0.000000000000503     0.000000000000111    -0.000000000000529
1 13
     0.058758877050790     0.180531146701436    -0.180531146701436
    -0.180529053739176    -0.137954162992276     0.193808432523393
     0.180529053739176     0.193808432523393    -0.137954162992276
1 14
    -0.000000000001761    -0.000000000000078     0.000000000000078
     0.000000000000503    -0.000000000000529     0.000000000000111
    -0.000000000000503     0.000000000000111    -0.000000000000529
1 15
     0.058758877050790     0.180531146701436     0.180531146701436
    -0.180529053739176    -0.137954162992276    -0.193808432523393
    -0.180529053739176    -0.193808432523393    -0.137954162992276
1 16
    -0.000000000001761    -0.000000000000078    -0.000000000000078
     0.000000000000503    -0.000000000000529    -0.000000000000111
     0.000000000000503    -0.000000000000111    -0.000000000000529
1 17
    -0.137954162992276     0.180529053739176    -0.193808432523393
    -0.180531146701436     0.058758877050790    -0.180531146701436
    -0.193808432523393     0.180529053739176    -0.137954162992276
1 18
    -0.137954162992276     0.180529053739176     0.193808432523393
    -0.180531146701436     0.058758877050790     0.180531146701436
     0.193808432523393    -0.180529053739176    -0.137954162992276
1 19
    -0.000000000000529    -0.000000000000503    -0.000000000000111
     0.000000000000078    -0.000000000001761     0.000000000000078
    -0.000000000000111    -0.000000000000503    -0.000000000000529
1 20
    -0.000000000000529    -0.000000000000503     0.000000000000111
     0.000000000000078    -0.000000000001761    -0.000000000000078
     0.000000000000111     0.000000000000503    -0.000000000000529
1 21
    -0.137954162992276    -0.180529053739176     0.193808432523393
     0.180531146701436     0.058758877050790    -0.180531146701436
     0.193808432523393     0.180529053739176    -0.137954162992276
1 22
    -0.137954162992276    -0.180529053739176    -0.193808432523393
     0.180531146701436     0.058758877050790     0.180531146701436
    -0.193808432523393    -0.180529053739176    -0.137954162992276
1 23
    -0.000000000000529     0.000000000000503     0.000000000000111
    -0.000000000000078    -0.000000000001761     0.000000000000078
     0.000000000000111    -0.000000000000503    -0.000000000000529
1 24
    -0.000000000000529     0.000000000000503    -0.000000000000111
    -0.000000000000078    -0.000000000001761    -0.000000000000078
    -0.000000000000111     0.000000000000503    -0.000000000000529
1 25
    -0.137954162992276    -0.193808432523393     0.180529053739176
    -0.193808432523393    -0.137954162992276     0.180529053739176
    -0.180531146701436    -0.180531146701436     0.058758877050790
1 26
    -0.137954162992276     0.193808432523393     0.180529053739176
     0.193808432523393    -0.137954162992276    -0.180529053739176
    -0.180531146701436     0.180531146701436     0.058758877050790
1 27
    -0.137954162992276     0.193808432523393    -0.180529053739176
     0.193808432523393    -0.137954162992276     0.180529053739176
     0.180531146701436    -0.180531146701436     0.058758877050790
1 28
    -0.137954162992276    -0.193808432523393    -0.180529053739176
    -0.193808432523393    -0.137954162992276    -0.180529053739176
     0.180531146701436     0.180531146701436     0.058758877050790
1 29
    -0.000000000000529    -0.000000000000111    -0.000000000000503
    -0.000000000000111    -0.000000000000529    -0.000000000000503
     0.000000000000078     0.000000000000078    -0.000000000001761
1 30
    -0.000000000000529     0.000000000000111    -0.000000000000503
     0.000000000000111    -0.000000000000529     0.000000000000503
     0.000000000000078    -0.000000000000078    -0.000000000001761
1 31
    -0.000000000000529     0.000000000000111     0.000000000000503
     0.000000000000111    -0.000000000000529    -0.000000000000503
    -0.000000000000078     0.000000000000078    -0.000000000001761
1 32
    -0.000000000000529    -0.000000000000111     0.000000000000503
    -0.000000000000111    -0.000000000000529     0.000000000000503
    -0.000000000000078    -0.000000000000078    -0.000000000001761
1 33
     0.000000000001410    -0.000000000000036    -0.000000000000036
    -0.000000000000036     0.000000000001410    -0.000000000000036
    -0.000000000000036    -0.000000000000036     0.000000000001410
1 34
    -0.000000000000042     0.000000000000133     0.000000000000133
     0.000000000000379     0.000000000001340     0.000000000000012
     0.000000000000379     0.000000000000012     0.000000000001340
1 35
     0.000000000001340     0.000000000000379     0.000000000000012
     0.000000000000133    -0.000000000000042     0.000000000000133
     0.000000000000012     0.000000000000379     0.000000000001340
1 36
     0.000000000000272     0.000000000000263     0.000000000000137
     0.000000000000263     0.000000000000272     0.000000000000137
    -0.000000000000073    -0.000000000000073     0.000000000000950
1 37
     0.000000000001340     0.000000000000012     0.000000000000379
     0.000000000000012     0.000000000001340     0.000000000000379
     0.000000000000133     0.000000000000133    -0.000000000000042
1 38
     0.000000000000272     0.000000000000137     0.000000000000263
    -0.000000000000073     0.000000000000950    -0.000000000000073
     0.000000000000263     0.000000000000137     0.000000000000272
1 39
     0.000000000000950    -0.000000000000073    -0.000000000000073
     0.000000000000137     0.000000000000272     0.000000000000263
     0.000000000000137     0.000000000000263     0.000000000000272
1 40
    -3.612033213785750    -2.399373432618689    -2.399373432618689
    -2.399373432618689    -3.612033213785749    -2.399373432618689
    -2.399373432618689    -2.399373432618689    -3.612033213785749
1 41
     0.000000000000950     0.000000000000073     0.000000000000073
    -0.000000000000137     0.000000000000272     0.000000000000263
    -0.000000000000137     0.000000000000263     0.000000000000272
1 42
    -3.612033213785750     2.399373432618689     2.399373432618689
     2.399373432618689    -3.612033213785750    -2.399373432618689
     2.399373432618689    -2.399373432618689    -3.612033213785749
1 43
     0.000000000001340    -0.000000000000012    -0.000000000000379
    -0.000000000000012     0.000000000001340     0.000000000000379
    -0.000000000000133     0.000000000000133    -0.000000000000042
1 44
     0.000000000000272    -0.000000000000137    -0.000000000000263
     0.000000000000073     0.000000000000950    -0.000000000000073
    -0.000000000000263     0.000000000000137     0.000000000000272
1 45
     0.000000000001340    -0.000000000000379    -0.000000000000012
    -0.000000000000133    -0.000000000000042     0.000000000000133
    -0.000000000000012     0.000000000000379     0.000000000001340
1 46
     0.000000000000272    -0.000000000000263    -0.000000000000137
    -0.000000000000263     0.000000000000272     0.000000000000137
     0.000000000000073    -0.000000000000073     0.000000000000950
1 47
     0.000000000001410     0.000000000000036     0.000000000000036
     0.000000000000036     0.000000000001410    -0.000000000000036
     0.000000000000036    -0.000000000000036     0.000000000001410
1 48
    -0.000000000000042    -0.000000000000133    -0.000000000000133
    -0.000000000000379     0.000000000001340     0.000000000000012
    -0.000000000000379     0.000000000000012     0.000000000001340
1 49
     0.000000000000272    -0.000000000000137     0.000000000000263
     0.000000000000073     0.000000000000950     0.000000000000073
     0.000000000000263    -0.000000000000137     0.000000000000272
1 50
     0.000000000001340    -0.000000000000012     0.000000000000379
    -0.000000000000012     0.000000000001340    -0.000000000000379
     0.000000000000133    -0.000000000000133    -0.000000000000042
1 51
    -3.612033213785750     2.399373432618689    -2.399373432618689
     2.399373432618689    -3.612033213785749     2.399373432618689
    -2.399373432618689     2.399373432618689    -3.612033213785750
1 52
     0.000000000000950     0.000000000000073    -0.000000000000073
    -0.000000000000137     0.000000000000272    -0.000000000000263
     0.000000000000137    -0.000000000000263     0.000000000000272
1 53
    -0.000000000000042    -0.000000000000133     0.000000000000133
    -0.000000000000379     0.000000000001340    -0.000000000000012
     0.000000000000379    -0.000000000000012     0.000000000001340
1 54
     0.000000000001410     0.000000000000036    -0.000000000000036
     0.000000000000036     0.000000000001410     0.000000000000036
    -0.000000000000036     0.000000000000036     0.000000000001410
1 55
     0.000000000000272    -0.000000000000263     0.000000000000137
    -0.000000000000263     0.000000000000272    -0.000000000000137
    -0.000000000000073     0.000000000000073     0.000000000000950
1 56
     0.000000000001340    -0.000000000000379     0.000000000000012
    -0.000000000000133    -0.000000000000042    -0.000000000000133
     0.000000000000012    -0.000000000000379     0.000000000001340
1 57
     0.000000000000272     0.000000000000263    -0.000000000000137
     0.000000000000263     0.000000000000272    -0.000000000000137
     0.000000000000073     0.000000000000073     0.000000000000950
1 58
     0.000000000001340     0.000000000000379    -0.000000000000012
     0.000000000000133    -0.000000000000042    -0.000000000000133
    -0.000000000000012    -0.000000000000379     0.000000000001340
1 59
    -0.000000000000042     0.000000000000133    -0.000000000000133
     0.000000000000379     0.000000000001340    -0.000000000000012
    -0.000000000000379    -0.000000000000012     0.000000000001340
1 60
     0.000000000001410    -0.000000000000036     0.000000000000036
    -0.000000000000036     0.000000000001410     0.000000000000036
     0.000000000000036     0.000000000000036     0.000000000001410
1 61
    -3.612033213785750    -2.399373432618689     2.399373432618689
    -2.399373432618689    -3.612033213785750     2.399373432618689
     2.399373432618689     2.399373432618689    -3.612033213785749
1 62
     0.000000000000950    -0.000000000000073     0.000000000000073
     0.000000000000137     0.000000000000272    -0.000000000000263
    -0.000000000000137    -0.000000000000263     0.000000000000272
1 63
     0.000000000000272     0.000000000000137    -0.000000000000263
    -0.000000000000073     0.000000000000950     0.000000000000073
    -0.000000000000263    -0.000000000000137     0.000000000000272
1 64
     0.000000000001340     0.000000000000012    -0.000000000000379
     0.000000000000012     0.000000000001340    -0.000000000000379
    -0.000000000000133    -0.000000000000133    -0.000000000000042
2 1
    -0.000000000002576    -0.000000000000000    -0.000000000000000
    -0.000000000000000    -0.000000000000888    -0.000000000000000
    -0.000000000000000    -0.000000000000000    -0.000000000000888
2 2
    15.316730650876870     0.000000000000000    -0.000000000000000
    -0.000000000000000    15.316730650876870    -0.000000000000000
    -0.000000000000000    -0.000000000000000    15.316730650876872
2 3
    -0.000000000002620    -0.000000000000000     0.000000000000000
    -0.000000000000000    -0.000000000002620    -0.000000000000000
    -0.000000000000000    -0.000000000000000    -0.000000000000799
2 4
    -0.000000000000888    -0.000000000000000     0.000000000000000
    -0.000000000000000    -0.000000000002576    -0.000000000000000
    -0.000000000000000    -0.000000000000000    -0.000000000000888
2 5
    -0.000000000002620    -0.000000000000000    -0.000000000000000
    -0.000000000000000    -0.000000000000799    -0.000000000000000
    -0.000000000000000    -0.000000000000000    -0.000000000002620
2 6
    -0.000000000000888     0.000000000000000    -0.000000000000000
     0.000000000000000    -0.000000000000888    -0.000000000000000
    -0.000000000000000    -0.000000000000000    -0.000000000002576
2 7
    -0.000000000002132     0.000000000000000    -0.000000000000000
    -0.000000000000000    -0.000000000002132    -0.000000000000000
    -0.000000000000000    -0.000000000000000    -0.000000000002132
2 8
    -0.000000000000799    -0.000000000000000    -0.000000000000000
    -0.000000000000000    -0.000000000002620    -0.000000000000000
    -0.000000000000000     0.000000000000000    -0.000000000002620
2 9
    -0.000000000001761     0.000000000000078     0.000000000000078
    -0.000000000000503    -0.000000000000529    -0.000000000000111
    -0.000000000000503    -0.000000000000111    -0.000000000000529
2 10
     0.058758877050790    -0.180531146701436    -0.180531146701436
     0.180529053739176    -0.137954162992276    -0.193808432523393
     0.180529053739176    -0.193808432523393    -0.137954162992276
2 11
    -0.000000000001761     0.000000000000078    -0.000000000000078
    -0.000000000000503    -0.000000000000529     0.000000000000111
     0.000000000000503     0.000000000000111    -0.000000000000529
2 12
     0.058758877050790    -0.180531146701436     0.180531146701436
     0.180529053739176    -0.137954162992276     0.193808432523393
    -0.180529053739176     0.193808432523393    -0.137954162992276
2 13
    -0.000000000001761    -0.000000000000078     0.000000000000078
     0.000000000000503    -0.000000000000529     0.000000000000111
    -0.000000000000503     0.000000000000111    -0.000000000000529
2 14
     0.058758877050790     0.180531146701436    -0.180531146701436
    -0.180529053739176    -0.137954162992276     0.193808432523393
     0.180529053739176     0.193808432523393    -0.137954162992276
2 15
    -0.000000000001761    -0.000000000000078    -0.000000000000078
     0.000000000000503    -0.000000000000529    -0.000000000000111
     0.000000000000503    -0.000000000000111    -0.000000000000529
2 16
     0.058758877050790     0.180531146701436     0.180531146701436
    -0.180529053739176    -0.137954162992276    -0.193808432523393
    -0.180529053739176    -0.193808432523393    -0.137954162992276
2 17
    -0.137954162992276     0.180529053739176     0.193808432523393
    -0.180531146701436     0.058758877050790     0.180531146701436
     0.193808432523393    -0.180529053739176    -0.137954162992276
2 18
    -0.137954162992276     0.180529053739176    -0.193808432523393
    -0.180531146701436     0.058758877050790    -0.180531146701436
    -0.193808432523393     0.180529053739176    -0.137954162992276
2 19
    -0.000000000000529    -0.000000000000503     0.000000000000111
     0.000000000000078    -0.000000000001761    -0.000000000000078
     0.000000000000111     0.000000000000503    -0.000000000000529
2 20
    -0.000000000000529    -0.000000000000503    -0.000000000000111
     0.000000000000078    -0.000000000001761     0.000000000000078
    -0.000000000000111    -0.000000000000503    -0.000000000000529
2 21
    -0.137954162992276    -0.180529053739176    -0.193808432523393
     0.180531146701436     0.058758877050790     0.180531146701436
    -0.193808432523393    -0.180529053739176    -0.137954162992276
2 22
    -0.137954162992276    -0.180529053739176     0.193808432523393
     0.180531146701436     0.058758877050790    -0.180531146701436
     0.193808432523393     0.180529053739176    -0.137954162992276
2 23
    -0.000000000000529     0.000000000000503    -0.000000000000111
    -0.000000000000078    -0.000000000001761    -0.000000000000078
    -0.000000000000111     0.000000000000503    -0.000000000000529
2 24
    -0.000000000000529     0.000000000000503     0.000000000000111
    -0.000000000000078    -0.000000000001761     0.000000000000078
     0.000000000000111    -0.000000000000503    -0.000000000000529
2 25
    -0.137954162992276     0.193808432523393     0.180529053739176
     0.193808432523393    -0.137954162992276    -0.180529053739176
    -0.180531146701436     0.180531146701436     0.058758877050790
2 26
    -0.137954162992276    -0.193808432523393     0.180529053739176
    -0.193808432523393    -0.137954162992276     0.180529053739176
    -0.180531146701436    -0.180531146701436     0.058758877050790
2 27
    -0.137954162992276    -0.193808432523393    -0.180529053739176
    -0.193808432523393    -0.137954162992276    -0.180529053739176
     0.180531146701436     0.180531146701436     0.058758877050790
2 28
    -0.137954162992276     0.193808432523393    -0.180529053739176
     0.193808432523393    -0.137954162992276     0.180529053739176
     0.180531146701436    -0.180531146701436     0.058758877050790
2 29
    -0.000000000000529     0.000000000000111    -0.000000000000503
     0.000000000000111    -0.000000000000529     0.000000000000503
     0.000000000000078    -0.000000000000078    -0.000000000001761
2 30
    -0.000000000000529    -0.000000000000111    -0.000000000000503
    -0.000000000000111    -0.000000000000529    -0.000000000000503
     0.000000000000078     0.000000000000078    -0.000000000001761
2 31
    -0.000000000000529    -0.000000000000111     0.000000000000503
    -0.000000000000111    -0.000000000000529     0.000000000000503
    -0.000000000000078    -0.000000000000078    -0.000000000001761
2 32
    -0.000000000000529     0.000000000000111     0.000000000000503
     0.000000000000111    -0.000000000000529    -0.000000000000503
    -0.000000000000078     0.000000000000078    -0.000000000001761
2 33
    -0.000000000000042     0.000000000000133     0.000000000000133
     0.000000000000379     0.000000000001340     0.000000000000012
     0.000000000000379     0.000000000000012     0.000000000001340
2 34
     0.000000000001410    -0.000000000000036    -0.000000000000036
    -0.000000000000036     0.000000000001410    -0.000000000000036
    -0.000000000000036    -0.000000000000036     0.000000000001410
2 35
     0.000000000000272     0.000000000000263     0.000000000000137
     0.000000000000263     0.000000000000272     0.000000000000137
    -0.000000000000073    -0.000000000000073     0.000000000000950
2 36
     0.000000000001340     0.000000000000379     0.000000000000012
     0.000000000000133    -0.000000000000042     0.000000000000133
     0.000000000000012     0.000000000000379     0.000000000001340
2 37
     0.000000000000272     0.000000000000137     0.000000000000263
    -0.000000000000073     0.000000000000950    -0.000000000000073
     0.000000000000263     0.000000000000137     0.000000000000272
2 38
     0.000000000001340     0.000000000000012     0.000000000000379
     0.000000000000012     0.000000000001340     0.000000000000379
     0.000000000000133     0.000000000000133    -0.000000000000042
2 39
    -3.612033213785749    -2.399373432618688    -2.399373432618689
    -2.399373432618688    -3.612033213785748    -2.399373432618688
    -2.399373432618688    -2.399373432618688    -3.612033213785749
2 40
     0.000000000000950    -0.000000000000073    -0.000000000000073
     0.000000000000137     0.000000000000272     0.000000000000263
     0.000000000000137     0.000000000000263     0.000000000000272
2 41
    -3.612033213785749     2.399373432618688     2.399373432618688
     2.399373432618688    -3.612033213785748    -2.399373432618688
     2.399373432618688    -2.399373432618689    -3.612033213785749
2 42
     0.000000000000950     0.000000000000073     0.000000000000073
    -0.000000000000137     0.000000000000272     0.000000000000263
    -0.000000000000137     0.000000000000263     0.000000000000272
2 43
     0.000000000000272    -0.000000000000137    -0.000000000000263
     0.000000000000073     0.000000000000950    -0.000000000000073
    -0.000000000000263     0.000000000000137     0.000000000000272
2 44
     0.000000000001340    -0.000000000000012    -0.000000000000379
    -0.000000000000012     0.000000000001340     0.000000000000379
    -0.000000000000133     0.000000000000133    -0.000000000000042
2 45
     0.000000000000272    -0.000000000000263    -0.000000000000137
    -0.000000000000263     0.000000000000272     0.000000000000137
     0.000000000000073    -0.000000000000073     0.000000000000950
2 46
     0.000000000001340    -0.000000000000379    -0.000000000000012
    -0.000000000000133    -0.000000000000042     0.000000000000133
    -0.000000000000012     0.000000000000379     0.000000000001340
2 47
    -0.000000000000042    -0.000000000000133    -0.000000000000133
    -0.000000000000379     0.000000000001340     0.000000000000012
    -0.000000000000379     0.000000000000012     0.000000000001340
2 48
     0.000000000001410     0.000000000000036     0.000000000000036
     0.000000000000036     0.000000000001410    -0.000000000000036
     0.000000000000036    -0.000000000000036     0.000000000001410
2 49
     0.000000000001340    -0.000000000000012     0.000000000000379
    -0.000000000000012     0.000000000001340    -0.000000000000379
     0.000000000000133    -0.000000000000133    -0.000000000000042
2 50
     0.000000000000272    -0.000000000000137     0.000000000000263
     0.000000000000073     0.000000000000950     0.000000000000073
     0.000000000000263    -0.000000000000137     0.000000000000272
2 51
     0.000000000000950     0.000000000000073    -0.000000000000073
    -0.000000000000137     0.000000000000272    -0.000000000000263
     0.000000000000137    -0.000000000000263     0.000000000000272
2 52
    -3.612033213785748     2.399373432618688    -2.399373432618688
     2.399373432618688    -3.612033213785749     2.399373432618688
    -2.399373432618688     2.399373432618689    -3.612033213785749
2 53
     0.000000000001410     0.000000000000036    -0.000000000000036
     0.000000000000036     0.000000000001410     0.000000000000036
    -0.000000000000036     0.000000000000036     0.000000000001410
2 54
    -0.000000000000042    -0.000000000000133     0.000000000000133
    -0.000000000000379     0.000000000001340    -0.000000000000012
     0.000000000000379    -0.000000000000012     0.000000000001340
2 55
     0.000000000001340    -0.000000000000379     0.000000000000012
    -0.000000000000133    -0.000000000000042    -0.000000000000133
     0.000000000000012    -0.000000000000379     0.000000000001340
2 56
     0.000000000000272    -0.000000000000263     0.000000000000137
    -0.000000000000263     0.000000000000272    -0.000000000000137
    -0.000000000000073     0.000000000000073     0.000000000000950
2 57
     0.000000000001340     0.000000000000379    -0.000000000000012
     0.000000000000133    -0.000000000000042    -0.000000000000133
    -0.000000000000012    -0.000000000000379     0.000000000001340
2 58
     0.000000000000272     0.000000000000263    -0.000000000000137
     0.000000000000263     0.000000000000272    -0.000000000000137
     0.000000000000073     0.000000000000073     0.000000000000950
2 59
     0.000000000001410    -0.000000000000036     0.000000000000036
    -0.000000000000036     0.000000000001410     0.000000000000036
     0.000000000000036     0.000000000000036     0.000000000001410
2 60
    -0.000000000000042     0.000000000000133    -0.000000000000133
     0.000000000000379     0.000000000001340    -0.000000000000012
    -0.000000000000379    -0.000000000000012     0.000000000001340
2 61
     0.000000000000950    -0.000000000000073     0.000000000000073
     0.000000000000137     0.000000000000272    -0.000000000000263
    -0.000000000000137    -0.000000000000263     0.000000000000272
2 62
    -3.612033213785748    -2.399373432618688     2.399373432618688
    -2.399373432618688    -3.612033213785748     2.399373432618689
     2.399373432618688     2.399373432618688    -3.612033213785749
2 63
     0.000000000001340     0.000000000000012    -0.000000000000379
     0.000000000000012     0.000000000001340    -0.000000000000379
    -0.000000000000133    -0.000000000000133    -0.000000000000042
2 64
     0.000000000000272     0.000000000000137    -0.000000000000263
    -0.000000000000073     0.000000000000950     0.000000000000073
    -0.000000000000263    -0.000000000000137     0.000000000000272
3 1
    -0.000000000000888    -0.000000000000000    -0.000000000000000
    -0.000000000000000    -0.000000000002576    -0.000000000000000
    -0.000000000000000    -0.000000000000000    -0.000000000000888
3 2
    -0.000000000002620    -0.000000000000000    -0.000000000000000
    -0.000000000000000    -0.000000000002620    -0.000000000000000
    -0.000000000000000    -0.000000000000000    -0.000000000000799
3 3
    15.316730650876872    -0.000000000000000    -0.000000000000000
    -0.000000000000000    15.316730650876870     0.000000000000000
    -0.000000000000000    -0.000000000000000    15.316730650876870
3 4
    -0.000000000002576    -0.000000000000000    -0.000000000000000
    -0.000000000000000    -0.000000000000888     0.000000000000000
    -0.000000000000000     0.000000000000000    -0.000000000000888
3 5
    -0.000000000000799    -0.000000000000000    -0.000000000000000
     0.000000000000000    -0.000000000002620    -0.000000000000000
    -0.000000000000000    -0.000000000000000    -0.000000000002620
3 6
    -0.000000000002132    -0.000000000000000    -0.000000000000000
    -0.000000000000000    -0.000000000002132     0.000000000000000
    -0.000000000000000    -0.000000000000000    -0.000000000002132
3 7
    -0.000000000000888    -0.000000000000000    -0.000000000000000
     0.000000000000000    -0.000000000000888    -0.000000000000000
    -0.000000000000000    -0.000000000000000    -0.000000000002576
3 8
    -0.000000000002620    -0.000000000000000     0.000000000000000
    -0.000000000000000    -0.000000000000799    -0.000000000000000
    -0.000000000000000    -0.000000000000000    -0.000000000002620
3 9
     0.058758877050790    -0.180531146701436     0.180531146701436
     0.180529053739176    -0.137954162992276     0.193808432523393
    -0.180529053739176     0.193808432523393    -0.137954162992276
3 10
    -0.000000000001761     0.000000000000078    -0.000000000000078
    -0.000000000000503    -0.000000000000529     0.000000000000111
     0.000000000000503     0.000000000000111    -0.000000000000529
3 11
     0.058758877050790    -0.180531146701436    -0.180531146701436
     0.180529053739176    -0.137954162992276    -0.193808432523393
     0.180529053739176    -0.193808432523393    -0.137954162992276
3 12
    -0.000000000001761     0.000000000000078     0.000000000000078
    -0.000000000000503    -0.000000000000529    -0.000000000000111
    -0.000000000000503    -0.000000000000111    -0.000000000000529
3 13
     0.058758877050790     0.180531146701436     0.180531146701436
    -0.180529053739176    -0.137954162992276    -0.193808432523393
    -0.180529053739176    -0.193808432523393    -0.137954162992276
3 14
    -0.000000000001761    -0.000000000000078    -0.000000000000078
     0.000000000000503    -0.000000000000529    -0.000000000000111
     0.000000000000503    -0.000000000000111    -0.000000000000529
3 15
     0.058758877050790     0.180531146701436    -0.180531146701436
    -0.180529053739176    -0.137954162992276     0.193808432523393
     0.180529053739176     0.193808432523393    -0.137954162992276
3 16
    -0.000000000001761    -0.000000000000078     0.000000000000078
     0.000000000000503    -0.000000000000529     0.000000000000111
    -0.000000000000503     0.000000000000111    -0.000000000000529
3 17
    -0.000000000000529    -0.000000000000503    -0.000000000000111
     0.000000000000078    -0.000000000001761     0.000000000000078
    -0.000000000000111    -0.000000000000503    -0.000000000000529
3 18
    -0.000000000000529    -0.000000000000503     0.000000000000111
     0.000000000000078    -0.000000000001761    -0.000000000000078