  64   64
1 1
    14.888785733500310    -0.000822077777158    -0.000822077777159
    -0.000822077777158    14.888785733500306    -0.000822077777158
    -0.000822077777159    -0.000822077777158    14.888785733500310
1 2
     0.003690887200383     0.000822077777159     0.000822077777159
     0.000822077777158    -0.002913822059236    -0.000822077777160
     0.000822077777159    -0.000822077777160    -0.002913822059238
1 3
    -0.002913822059236     0.000822077777158    -0.000822077777159
     0.000822077777159     0.003690887200381     0.000822077777158
    -0.000822077777159     0.000822077777158    -0.002913822059234
1 4
    -0.000839130212948    -0.000822077777159     0.000822077777159
    -0.000822077777159    -0.000839130212950     0.000822077777158
     0.000822077777159     0.000822077777158     0.000763152733248
1 5
    -0.002913822059237    -0.000822077777159     0.000822077777159
    -0.000822077777159    -0.002913822059235     0.000822077777161
     0.000822077777159     0.000822077777161     0.003690887200384
1 6
    -0.000839130212950     0.000822077777159    -0.000822077777159
     0.000822077777159     0.000763152733243     0.000822077777159
    -0.000822077777159     0.000822077777158    -0.000839130212951
1 7
     0.000763152733246     0.000822077777160     0.000822077777159
     0.000822077777160    -0.000839130212943    -0.000822077777158
     0.000822077777159    -0.000822077777158    -0.000839130212952
1 8
    -0.016636435416269    -0.000822077777159    -0.000822077777159
    -0.000822077777159    -0.016636435416266    -0.000822077777159
    -0.000822077777159    -0.000822077777159    -0.016636435416266
1 9
     0.063883860816587    -0.167207596889354    -0.167207596889354
     0.167207596889354    -0.147071807999479    -0.202580971593074
     0.167207596889353    -0.202580971593073    -0.147071807999478
1 10
    -0.001305861909371     0.001949679220538     0.001949679220538
    -0.001949679220538    -0.003522026481905    -0.000188925740591
    -0.001949679220537    -0.000188925740590    -0.003522026481907
1 11
     0.062454302057697    -0.167207596889354     0.167207596889354
     0.167207596889354    -0.147076448421551     0.202578287273277
    -0.167207596889353     0.202583655912871    -0.147076448421548
1 12
    -0.002735420668266     0.001949679220538    -0.001949679220538
    -0.001949679220538    -0.003526666903984     0.000191610060390
     0.001949679220537     0.000186241420795    -0.003526666903986
1 13
     0.062454302057698     0.167207596889354    -0.167207596889353
    -0.167207596889354    -0.147076448421550     0.202583655912871
     0.167207596889354     0.202578287273277    -0.147076448421548
1 14
    -0.002735420668266    -0.001949679220538     0.001949679220537
     0.001949679220538    -0.003526666903984     0.000186241420795
    -0.001949679220538     0.000191610060390    -0.003526666903986
1 15
     0.063883860816592     0.167207596889354     0.167207596889353
    -0.167207596889354    -0.147071807999474    -0.202580971593073
    -0.167207596889354    -0.202580971593074    -0.147071807999473
1 16
    -0.001305861909371    -0.001949679220538    -0.001949679220537
     0.001949679220538    -0.003522026481905    -0.000188925740591
     0.001949679220538    -0.000188925740591    -0.003522026481907
1 17
    -0.147071807999478     0.167207596889353    -0.202580971593073
    -0.167207596889354     0.063883860816587    -0.167207596889355
    -0.202580971593073     0.167207596889354    -0.147071807999479
1 18
    -0.147076448421550     0.167207596889354     0.202578287273276
    -0.167207596889353     0.062454302057695     0.167207596889353
     0.202583655912869    -0.167207596889354    -0.147076448421551
1 19
    -0.003522026481908    -0.001949679220537    -0.000188925740592
     0.001949679220538    -0.001305861909369     0.001949679220536
    -0.000188925740592    -0.001949679220539    -0.003522026481907
1 20
    -0.003526666903985    -0.001949679220538     0.000191610060389
     0.001949679220537    -0.002735420668266    -0.001949679220538
     0.000186241420796     0.001949679220536    -0.003526666903985
1 21
    -0.147076448421550    -0.167207596889353     0.202583655912869
     0.167207596889354     0.062454302057695    -0.167207596889354
     0.202578287273276     0.167207596889353    -0.147076448421551
1 22
    -0.147071807999473    -0.167207596889354    -0.202580971593073
     0.167207596889353     0.063883860816591     0.167207596889354
    -0.202580971593073    -0.167207596889355    -0.147071807999474
1 23
    -0.003526666903985     0.001949679220537     0.000186241420796
    -0.001949679220538    -0.002735420668266     0.001949679220536
     0.000191610060389    -0.001949679220538    -0.003526666903986
1 24
    -0.003522026481907     0.001949679220538    -0.000188925740592
    -0.001949679220537    -0.001305861909369    -0.001949679220539
    -0.000188925740592     0.001949679220536    -0.003522026481907
1 25
    -0.147071807999477    -0.202580971593073     0.167207596889353
    -0.202580971593073    -0.147071807999478     0.167207596889353
    -0.167207596889354    -0.167207596889354     0.063883860816586
1 26
    -0.147076448421550     0.202578287273276     0.167207596889354
     0.202583655912870    -0.147076448421550    -0.167207596889353
    -0.167207596889353     0.167207596889355     0.062454302057696
1 27
    -0.147076448421550     0.202583655912870    -0.167207596889353
     0.202578287273276    -0.147076448421550     0.167207596889355
     0.167207596889354    -0.167207596889353     0.062454302057696
1 28
    -0.147071807999472    -0.202580971593073    -0.167207596889354
    -0.202580971593073    -0.147071807999474    -0.167207596889354
     0.167207596889353     0.167207596889353     0.063883860816591
1 29
    -0.003522026481907    -0.000188925740592    -0.001949679220537
    -0.000188925740592    -0.003522026481908    -0.001949679220537
     0.001949679220538     0.001949679220538    -0.001305861909371
1 30
    -0.003526666903985     0.000191610060389    -0.001949679220538
     0.000186241420795    -0.003526666903985     0.001949679220539
     0.001949679220537    -0.001949679220536    -0.002735420668264
1 31
    -0.003526666903985     0.000186241420795     0.001949679220537
     0.000191610060389    -0.003526666903985    -0.001949679220536
    -0.001949679220538     0.001949679220539    -0.002735420668264
1 32
    -0.003522026481907    -0.000188925740592     0.001949679220538
    -0.000188925740592    -0.003522026481908     0.001949679220538
    -0.001949679220537    -0.001949679220537    -0.001305861909371
1 33
     0.005140709217541     0.005118248660478     0.005118248660478
     0.005118248660477     0.005140709217541     0.005118248660478
     0.005118248660478     0.005118248660479     0.005140709217540
1 34
     0.003732300103398    -0.001582223929566    -0.001582223929566
    -0.001582223929565     0.004543904013395    -0.002648430483283
    -0.001582223929565    -0.002648430483282     0.004543904013397
1 35
     0.004543904013397    -0.001582223929565    -0.002648430483283
    -0.001582223929565     0.003732300103400    -0.001582223929565
    -0.002648430483282    -0.001582223929565     0.004543904013396
1 36
     0.002492073272456    -0.000542861674119     0.000280345532177
    -0.000542861674119     0.002492073272457     0.000280345532177
     0.000280345532177     0.000280345532176    -0.004404212995138
1 37
     0.004543904013396    -0.002648430483282    -0.001582223929565
    -0.002648430483283     0.004543904013397    -0.001582223929563
    -0.001582223929567    -0.001582223929565     0.003732300103399
1 38
     0.002492073272456     0.000280345532177    -0.000542861674118
     0.000280345532177    -0.004404212995138     0.000280345532176
    -0.000542861674118     0.000280345532176     0.002492073272456
1 39
    -0.004404212995138     0.000280345532177     0.000280345532177
     0.000280345532178     0.002492073272456    -0.000542861674120
     0.000280345532177    -0.000542861674119     0.002492073272457
1 40
    -3.495766599607240    -2.327461758939538    -2.327461758939538
    -2.327461758939538    -3.495766599607239    -2.327461758939537
    -2.327461758939538    -2.327461758939537    -3.495766599607239
1 41
    -0.003676640763213    -0.001277870051459    -0.001277870051458
    -0.001277870051459     0.002760619165716    -0.000069434888156
    -0.001277870051458    -0.000069434888157     0.002760619165717
1 42
    -3.496494171839164     2.328459283458819     2.328459283458820
     2.328459283458819    -3.496035145500498    -2.327935185725498
     2.328459283458820    -2.327935185725500    -3.496035145500497
1 43
     0.004543904013395     0.003172528216602     0.001058126196246
     0.003172528216602     0.004084877674728    -0.001582223929562
     0.001058126196247    -0.001582223929564     0.004191326442062
1 44
     0.002492073272456    -0.000804443265496     0.001066959407438
    -0.000804443265494    -0.003945186656474     0.000280345532176
     0.001066959407438     0.000280345532176     0.002033046933789
1 45
     0.004543904013396     0.001058126196246     0.003172528216603
     0.001058126196245     0.004191326442063    -0.001582223929566
     0.003172528216603    -0.001582223929565     0.004084877674731
1 46
     0.002492073272457     0.001066959407437    -0.000804443265496
     0.001066959407437     0.002033046933788     0.000280345532175
    -0.000804443265497     0.000280345532175    -0.003945186656474
1 47
     0.004413136985617    -0.004120724141196    -0.004120724141196
    -0.004120724141196     0.004872163324282     0.004644821874513
    -0.004120724141197     0.004644821874515     0.004872163324282
1 48
     0.004459872335321     0.000584699410283     0.000584699410283
     0.000584699410282     0.004812449906654    -0.002175003697321
     0.000584699410282    -0.002175003697320     0.004812449906654
1 49
     0.002760619165716    -0.001277870051459    -0.000069434888157
    -0.001277870051457    -0.003676640763212    -0.001277870051459
    -0.000069434888158    -0.001277870051459     0.002760619165716
1 50
     0.004084877674730     0.003172528216602    -0.001582223929565
     0.003172528216604     0.004543904013394     0.001058126196245
    -0.001582223929566     0.001058126196247     0.004191326442064
1 51
    -3.496035145500497     2.328459283458819    -2.327935185725500
     2.328459283458818    -3.496494171839164     2.328459283458818
    -2.327935185725501     2.328459283458819    -3.496035145500498
1 52
    -0.003945186656473    -0.000804443265496     0.000280345532177
    -0.000804443265496     0.002492073272457     0.001066959407437
     0.000280345532176     0.001066959407438     0.002033046933791
1 53
     0.004191326442063     0.001058126196246    -0.001582223929565
     0.001058126196246     0.004543904013395     0.003172528216604
    -0.001582223929564     0.003172528216603     0.004084877674731
1 54
     0.004872163324283    -0.004120724141197     0.004644821874516
    -0.004120724141196     0.004413136985616    -0.004120724141195
     0.004644821874516    -0.004120724141196     0.004872163324283
1 55
     0.002033046933791     0.001066959407438     0.000280345532177
     0.001066959407439     0.002492073272456    -0.000804443265495
     0.000280345532178    -0.000804443265495    -0.003945186656473
1 56
     0.004812449906654     0.000584699410283    -0.002175003697321
     0.000584699410283     0.004459872335322     0.000584699410283
    -0.002175003697320     0.000584699410282     0.004812449906654
1 57
     0.002760619165716    -0.000069434888157    -0.001277870051458
    -0.000069434888157     0.002760619165716    -0.001277870051459
    -0.001277870051458    -0.001277870051459    -0.003676640763213
1 58
     0.004084877674730    -0.001582223929565     0.003172528216602
    -0.001582223929564     0.004191326442063     0.001058126196246
     0.003172528216602     0.001058126196245     0.004543904013396
1 59
     0.004191326442062    -0.001582223929565     0.001058126196246
    -0.001582223929565     0.004084877674730     0.003172528216603
     0.001058126196244     0.003172528216603     0.004543904013395
1 60
     0.004872163324283     0.004644821874516    -0.004120724141196
     0.004644821874514     0.004872163324284    -0.004120724141197
    -0.004120724141196    -0.004120724141196     0.004413136985618
1 61
    -3.496035145500499    -2.327935185725500     2.328459283458820
    -2.327935185725500    -3.496035145500497     2.328459283458819
     2.328459283458820     2.328459283458819    -3.496494171839162
1 62
    -0.003945186656473     0.000280345532177    -0.000804443265496
     0.000280345532177     0.002033046933791     0.001066959407439
    -0.000804443265496     0.001066959407437     0.002492073272457
1 63
     0.002033046933791     0.000280345532177     0.001066959407437
     0.000280345532177    -0.003945186656473    -0.000804443265496
     0.001066959407437    -0.000804443265496     0.002492073272456
1 64
     0.004812449906653    -0.002175003697321     0.000584699410283
    -0.002175003697321     0.004812449906654     0.000584699410282
     0.000584699410284     0.000584699410282     0.004459872335320
2 1
     0.003690887200383     0.000822077777159     0.000822077777159
     0.000822077777158    -0.002913822059236    -0.000822077777160
     0.000822077777159    -0.000822077777160    -0.002913822059238
2 2
    14.888785733500306    -0.000822077777158    -0.000822077777159
    -0.000822077777158    14.888785733500303    -0.000822077777158
    -0.000822077777159    -0.000822077777158    14.888785733500306
2 3
    -0.000839130212948    -0.000822077777159     0.000822077777159
    -0.000822077777159    -0.000839130212950     0.000822077777158
     0.000822077777159     0.000822077777158     0.000763152733248
2 4
    -0.002913822059236     0.000822077777158    -0.000822077777159
     0.000822077777159     0.003690887200381     0.000822077777158
    -0.000822077777159     0.000822077777158    -0.002913822059234
2 5
    -0.000839130212950     0.000822077777159    -0.000822077777159
     0.000822077777159     0.000763152733243     0.000822077777159
    -0.000822077777159     0.000822077777158    -0.000839130212951
2 6
    -0.002913822059237    -0.000822077777159     0.000822077777159
    -0.000822077777159    -0.002913822059235     0.000822077777161
     0.000822077777159     0.000822077777161     0.003690887200384
2 7
    -0.016636435416269    -0.000822077777159    -0.000822077777159
    -0.000822077777159    -0.016636435416266    -0.000822077777159
    -0.000822077777159    -0.000822077777159    -0.016636435416266
2 8
     0.000763152733246     0.000822077777160     0.000822077777159
     0.000822077777160    -0.000839130212943    -0.000822077777158
     0.000822077777159    -0.000822077777158    -0.000839130212952
2 9
    -0.001305861909371     0.001949679220538     0.001949679220538
    -0.001949679220538    -0.003522026481905    -0.000188925740591
    -0.001949679220537    -0.000188925740590    -0.003522026481907
2 10
     0.063883860816587    -0.167207596889354    -0.167207596889354
     0.167207596889354    -0.147071807999479    -0.202580971593074
     0.167207596889353    -0.202580971593072    -0.147071807999478
2 11
    -0.002735420668266     0.001949679220538    -0.001949679220538
    -0.001949679220538    -0.003526666903984     0.000191610060390
     0.001949679220537     0.000186241420795    -0.003526666903986
2 12
     0.062454302057697    -0.167207596889354     0.167207596889354
     0.167207596889354    -0.147076448421551     0.202578287273277
    -0.167207596889353     0.202583655912871    -0.147076448421548
2 13
    -0.002735420668266    -0.001949679220538     0.001949679220537
     0.001949679220538    -0.003526666903984     0.000186241420795
    -0.001949679220538     0.000191610060390    -0.003526666903986
2 14
     0.062454302057698     0.167207596889354    -0.167207596889353
    -0.167207596889354    -0.147076448421550     0.202583655912871
     0.167207596889354     0.202578287273277    -0.147076448421548
2 15
    -0.001305861909371    -0.001949679220538    -0.001949679220537
     0.001949679220538    -0.003522026481905    -0.000188925740591
     0.001949679220538    -0.000188925740591    -0.003522026481907
2 16
     0.063883860816592     0.167207596889354     0.167207596889353
    -0.167207596889354    -0.147071807999474    -0.202580971593072
    -0.167207596889354    -0.202580971593073    -0.147071807999473
2 17
    -0.147076448421550     0.167207596889354     0.202578287273276
    -0.167207596889353     0.062454302057695     0.167207596889353
     0.202583655912869    -0.167207596889354    -0.147076448421551
2 18
    -0.147071807999478     0.167207596889353    -0.202580971593073
    -0.167207596889354     0.063883860816587    -0.167207596889354
    -0.202580971593073     0.167207596889354    -0.147071807999479
2 19
    -0.003526666903985    -0.001949679220538     0.000191610060389
     0.001949679220537    -0.002735420668266    -0.001949679220538
     0.000186241420796     0.001949679220536    -0.003526666903985
2 20
    -0.003522026481908    -0.001949679220537    -0.000188925740592
     0.001949679220538    -0.001305861909369     0.001949679220536
    -0.000188925740592    -0.001949679220539    -0.003522026481907
2 21
    -0.147071807999473    -0.167207596889354    -0.202580971593073
     0.167207596889353     0.063883860816591     0.167207596889354
    -0.202580971593073    -0.167207596889355    -0.147071807999474
2 22
    -0.147076448421550    -0.167207596889353     0.202583655912869
     0.167207596889354     0.062454302057695    -0.167207596889354
     0.202578287273276     0.167207596889353    -0.147076448421551
2 23
    -0.003522026481907     0.001949679220538    -0.000188925740592
    -0.001949679220537    -0.001305861909369    -0.001949679220539
    -0.000188925740592     0.001949679220536    -0.003522026481907
2 24
    -0.003526666903985     0.001949679220537     0.000186241420796
    -0.001949679220538    -0.002735420668266     0.001949679220536
     0.000191610060389    -0.001949679220538    -0.003526666903986
2 25
    -0.147076448421550     0.202578287273276     0.167207596889354
     0.202583655912870    -0.147076448421550    -0.167207596889353
    -0.167207596889353     0.167207596889355     0.062454302057696
2 26
    -0.147071807999477    -0.202580971593073     0.167207596889353
    -0.202580971593073    -0.147071807999478     0.167207596889353
    -0.167207596889354    -0.167207596889354     0.063883860816586
2 27
    -0.147071807999472    -0.202580971593073    -0.167207596889354
    -0.202580971593073    -0.147071807999474    -0.167207596889354
     0.167207596889353     0.167207596889353     0.063883860816591
2 28
    -0.147076448421550     0.202583655912870    -0.167207596889353
     0.202578287273276    -0.147076448421550     0.167207596889355
     0.167207596889354    -0.167207596889353     0.062454302057696
2 29
    -0.003526666903985     0.000191610060389    -0.001949679220538
     0.000186241420795    -0.003526666903985     0.001949679220539
     0.001949679220537    -0.001949679220536    -0.002735420668264
2 30
    -0.003522026481907    -0.000188925740592    -0.001949679220537
    -0.000188925740592    -0.003522026481908    -0.001949679220537
     0.001949679220538     0.001949679220538    -0.001305861909371
2 31
    -0.003522026481907    -0.000188925740592     0.001949679220538
    -0.000188925740592    -0.003522026481908     0.001949679220538
    -0.001949679220537    -0.001949679220537    -0.001305861909371
2 32
    -0.003526666903985     0.000186241420795     0.001949679220537
     0.000191610060389    -0.003526666903985    -0.001949679220536
    -0.001949679220538     0.001949679220539    -0.002735420668264
2 33
     0.003732300103398    -0.001582223929566    -0.001582223929566
    -0.001582223929565     0.004543904013395    -0.002648430483283
    -0.001582223929565    -0.002648430483282     0.004543904013397
2 34
     0.005140709217541     0.005118248660478     0.005118248660478
     0.005118248660477     0.005140709217541     0.005118248660478
     0.005118248660478     0.005118248660479     0.005140709217540
2 35
     0.002492073272456    -0.000542861674119     0.000280345532177
    -0.000542861674119     0.002492073272457     0.000280345532177
     0.000280345532177     0.000280345532176    -0.004404212995138
2 36
     0.004543904013397    -0.001582223929565    -0.002648430483283
    -0.001582223929565     0.003732300103400    -0.001582223929565
    -0.002648430483282    -0.001582223929565     0.004543904013396
2 37
     0.002492073272456     0.000280345532177    -0.000542861674118
     0.000280345532177    -0.004404212995138     0.000280345532176
    -0.000542861674118     0.000280345532176     0.002492073272456
2 38
     0.004543904013396    -0.002648430483282    -0.001582223929565
    -0.002648430483283     0.004543904013397    -0.001582223929563
    -0.001582223929567    -0.001582223929565     0.003732300103399
2 39
    -3.495766599607239    -2.327461758939538    -2.327461758939537
    -2.327461758939537    -3.495766599607238    -2.327461758939537
    -2.327461758939537    -2.327461758939537    -3.495766599607238
2 40
    -0.004404212995138     0.000280345532177     0.000280345532177
     0.000280345532178     0.002492073272456    -0.000542861674120
     0.000280345532177    -0.000542861674119     0.002492073272457
2 41
    -3.496494171839163     2.328459283458819     2.328459283458819
     2.328459283458819    -3.496035145500497    -2.327935185725498
     2.328459283458820    -2.327935185725500    -3.496035145500496
2 42
    -0.003676640763213    -0.001277870051459    -0.001277870051458
    -0.001277870051459     0.002760619165716    -0.000069434888156
    -0.001277870051458    -0.000069434888157     0.002760619165717
2 43
     0.002492073272456    -0.000804443265496     0.001066959407438
    -0.000804443265494    -0.003945186656474     0.000280345532176
     0.001066959407438     0.000280345532176     0.002033046933789
2 44
     0.004543904013395     0.003172528216602     0.001058126196246
     0.003172528216602     0.004084877674728    -0.001582223929562
     0.001058126196247    -0.001582223929564     0.004191326442062
2 45
     0.002492073272457     0.001066959407437    -0.000804443265496
     0.001066959407437     0.002033046933788     0.000280345532175
    -0.000804443265497     0.000280345532175    -0.003945186656474
2 46
     0.004543904013396     0.001058126196246     0.003172528216603
     0.001058126196245     0.004191326442063    -0.001582223929566
     0.003172528216603    -0.001582223929565     0.004084877674731
2 47
     0.004459872335321     0.000584699410283     0.000584699410283
     0.000584699410282     0.004812449906654    -0.002175003697321
     0.000584699410282    -0.002175003697320     0.004812449906654
2 48
     0.004413136985617    -0.004120724141196    -0.004120724141196
    -0.004120724141196     0.004872163324282     0.004644821874513
    -0.004120724141197     0.004644821874515     0.004872163324282
2 49
     0.004084877674730     0.003172528216602    -0.001582223929565
     0.003172528216604     0.004543904013394     0.001058126196245
    -0.001582223929566     0.001058126196247     0.004191326442064
2 50
     0.002760619165716    -0.001277870051459    -0.000069434888157
    -0.001277870051457    -0.003676640763212    -0.001277870051459
    -0.000069434888158    -0.001277870051459     0.002760619165716
2 51
    -0.003945186656473    -0.000804443265496     0.000280345532177
    -0.000804443265496     0.002492073272457     0.001066959407437
     0.000280345532176     0.001066959407438     0.002033046933791
2 52
    -3.496035145500496     2.328459283458819    -2.327935185725500
     2.328459283458817    -3.496494171839164     2.328459283458818
    -2.327935185725500     2.328459283458819    -3.496035145500497
2 53
     0.004872163324283    -0.004120724141197     0.004644821874516
    -0.004120724141196     0.004413136985616    -0.004120724141195
     0.004644821874516    -0.004120724141196     0.004872163324283
2 54
     0.004191326442063     0.001058126196246    -0.001582223929565
     0.001058126196246     0.004543904013395     0.003172528216604
    -0.001582223929564     0.003172528216603     0.004084877674731
2 55
     0.004812449906654     0.000584699410283    -0.002175003697321
     0.000584699410283     0.004459872335322     0.000584699410283
    -0.002175003697320     0.000584699410282     0.004812449906654
2 56
     0.002033046933791     0.001066959407438     0.000280345532177
     0.001066959407439     0.002492073272456    -0.000804443265495
     0.000280345532178    -0.000804443265495    -0.003945186656473
2 57
     0.004084877674730    -0.001582223929565     0.003172528216602
    -0.001582223929564     0.004191326442063     0.001058126196246
     0.003172528216602     0.001058126196245     0.004543904013396
2 58
     0.002760619165716    -0.000069434888157    -0.001277870051458
    -0.000069434888157     0.002760619165716    -0.001277870051459
    -0.001277870051458    -0.001277870051459    -0.003676640763213
2 59
     0.004872163324283     0.004644821874516    -0.004120724141196
     0.004644821874514     0.004872163324284    -0.004120724141197
    -0.004120724141196    -0.004120724141196     0.004413136985618
2 60
     0.004191326442062    -0.001582223929565     0.001058126196246
    -0.001582223929565     0.004084877674730     0.003172528216603
     0.001058126196244     0.003172528216603     0.004543904013395
2 61
    -0.003945186656473     0.000280345532177    -0.000804443265496
     0.000280345532177     0.002033046933791     0.001066959407439
    -0.000804443265496     0.001066959407437     0.002492073272457
2 62
    -3.496035145500498    -2.327935185725500     2.328459283458819
    -2.327935185725499    -3.496035145500496     2.328459283458819
     2.328459283458820     2.328459283458819    -3.496494171839161
2 63
     0.004812449906653    -0.002175003697321     0.000584699410283
    -0.002175003697321     0.004812449906654     0.000584699410282
     0.000584699410284     0.000584699410282     0.004459872335320
2 64
     0.002033046933791     0.000280345532177     0.001066959407437
     0.000280345532177    -0.003945186656473    -0.000804443265496
     0.001066959407437    -0.000804443265496     0.002492073272456
3 1
    -0.002913822059236     0.000822077777158    -0.000822077777159
     0.000822077777159     0.003690887200381     0.000822077777158
    -0.000822077777159     0.000822077777158    -0.002913822059234
3 2
    -0.000839130212948    -0.000822077777159     0.000822077777159
    -0.000822077777159    -0.000839130212950     0.000822077777158
     0.000822077777159     0.000822077777158     0.000763152733248
3 3
    14.888785733500306    -0.000822077777158    -0.000822077777159
    -0.000822077777158    14.888785733500303    -0.000822077777158
    -0.000822077777159    -0.000822077777158    14.888785733500306
3 4
     0.003690887200383     0.000822077777159     0.000822077777159
     0.000822077777158    -0.002913822059236    -0.000822077777160
     0.000822077777159    -0.000822077777160    -0.002913822059238
3 5
     0.000763152733246     0.000822077777160     0.000822077777159
     0.000822077777160    -0.000839130212943    -0.000822077777158
     0.000822077777159    -0.000822077777158    -0.000839130212952
3 6
    -0.016636435416269    -0.000822077777159    -0.000822077777159
    -0.000822077777159    -0.016636435416266    -0.000822077777159
    -0.000822077777159    -0.000822077777159    -0.016636435416266
3 7
    -0.002913822059237    -0.000822077777159     0.000822077777159
    -0.000822077777159    -0.002913822059235     0.000822077777161
     0.000822077777159     0.000822077777161     0.003690887200384
3 8
    -0.000839130212950     0.000822077777159    -0.000822077777159
     0.000822077777159     0.000763152733243     0.000822077777159
    -0.000822077777159     0.000822077777158    -0.000839130212951
3 9
     0.062454302057697    -0.167207596889354     0.167207596889354
     0.167207596889354    -0.147076448421551     0.202578287273277
    -0.167207596889353     0.202583655912871    -0.147076448421548
3 10
    -0.002735420668266     0.001949679220538    -0.001949679220538
    -0.001949679220538    -0.003526666903984     0.000191610060390
     0.001949679220537     0.000186241420795    -0.003526666903986
3 11
     0.063883860816587    -0.167207596889354    -0.167207596889354
     0.167207596889354    -0.147071807999479    -0.202580971593074
     0.167207596889353    -0.202580971593072    -0.147071807999478
3 12
    -0.001305861909371     0.001949679220538     0.001949679220538
    -0.001949679220538    -0.003522026481905    -0.000188925740591
    -0.001949679220537    -0.000188925740590    -0.003522026481907
3 13
     0.063883860816592     0.167207596889354     0.167207596889353
    -0.167207596889354    -0.147071807999474    -0.202580971593072
    -0.167207596889354    -0.202580971593073    -0.147071807999473
3 14
    -0.001305861909371    -0.001949679220538    -0.001949679220537
     0.001949679220538    -0.003522026481905    -0.000188925740591
     0.001949679220538    -0.000188925740591    -0.003522026481907
3 15
     0.062454302057698     0.167207596889354    -0.167207596889353
    -0.167207596889354    -0.147076448421550     0.202583655912871
     0.167207596889354     0.202578287273277    -0.147076448421548
3 16
    -0.002735420668266    -0.001949679220538     0.001949679220537
     0.001949679220538    -0.003526666903984     0.000186241420795
    -0.001949679220538     0.000191610060390    -0.003526666903986
3 17
    -0.003522026481908    -0.001949679220537    -0.000188925740592
     0.001949679220538    -0.001305861909369     0.001949679220536
    -0.000188925740592    -0.001949679220539    -0.003522026481907
3 18
    -0.003526666903985    -0.001949679220538     0.000191610060389
     0.001949679220537    -0.002735420668266    -0.001949679220538