  64   64
1 1
    14.888437620233232    -0.000822077778027    -0.000822077778027
    -0.000822077778027    14.888437620233235    -0.000822077778027
    -0.000822077778027    -0.000822077778027    14.888437620233232
1 2
     0.003272849196247     0.000822077778027     0.000822077778027
     0.000822077778027    -0.003144150197964    -0.000822077778027
     0.000822077778027    -0.000822077778027    -0.003144150197962
1 3
    -0.003144150197962     0.000822077778027    -0.000822077778027
     0.000822077778027     0.003272849196248     0.000822077778029
    -0.000822077778027     0.000822077778029    -0.003144150197966
1 4
    -0.000971378185163    -0.000822077778027     0.000822077778027
    -0.000822077778027    -0.000971378185164     0.000822077778028
     0.000822077778027     0.000822077778028     0.000818614628189
1 5
    -0.003144150197962    -0.000822077778028     0.000822077778027
    -0.000822077778028    -0.003144150197964     0.000822077778031
     0.000822077778027     0.000822077778031     0.003272849196251
1 6
    -0.000971378185163     0.000822077778028    -0.000822077778027
     0.000822077778028     0.000818614628184     0.000822077778026
    -0.000822077778027     0.000822077778026    -0.000971378185167
1 7
     0.000818614628186     0.000822077778028     0.000822077778027
     0.000822077778028    -0.000971378185164    -0.000822077778028
     0.000822077778027    -0.000822077778027    -0.000971378185163
1 8
    -0.016650898271309    -0.000822077778028    -0.000822077778027
    -0.000822077778028    -0.016650898271305    -0.000822077778025
    -0.000822077778027    -0.000822077778025    -0.016650898271309
1 9
     0.063809845125613    -0.167255739012475    -0.167255739012476
     0.167255739012475    -0.146934774601995    -0.202559970978870
     0.167255739012475    -0.202559970978872    -0.146934774601995
1 10
    -0.001393955345546     0.001901537098884     0.001901537098884
    -0.001901537098884    -0.003406187338563    -0.000209926353500
    -0.001901537098884    -0.000209926353499    -0.003406187338564
1 11
     0.062380286365196    -0.167255739012475     0.167255739012476
     0.167255739012475    -0.146939415021453     0.202557286657287
    -0.167255739012475     0.202562655300452    -0.146939415021453
1 12
    -0.002823514105967     0.001901537098884    -0.001901537098884
    -0.001901537098884    -0.003410827758024     0.000212610675082
     0.001901537098884     0.000207242031916    -0.003410827758025
1 13
     0.062380286365197     0.167255739012476    -0.167255739012476
    -0.167255739012475    -0.146939415021452     0.202562655300452
     0.167255739012476     0.202557286657287    -0.146939415021452
1 14
    -0.002823514105967    -0.001901537098884     0.001901537098884
     0.001901537098884    -0.003410827758024     0.000207242031916
    -0.001901537098884     0.000212610675082    -0.003410827758025
1 15
     0.063809845125618     0.167255739012475     0.167255739012475
    -0.167255739012475    -0.146934774601990    -0.202559970978872
    -0.167255739012476    -0.202559970978870    -0.146934774601990
1 16
    -0.001393955345546    -0.001901537098884    -0.001901537098884
     0.001901537098884    -0.003406187338563    -0.000209926353499
     0.001901537098884    -0.000209926353500    -0.003406187338564
1 17
    -0.146934774601996     0.167255739012475    -0.202559970978870
    -0.167255739012475     0.063809845125612    -0.167255739012477
    -0.202559970978870     0.167255739012476    -0.146934774601997
1 18
    -0.146939415021451     0.167255739012475     0.202557286657288
    -0.167255739012476     0.062380286365197     0.167255739012475
     0.202562655300452    -0.167255739012476    -0.146939415021452
1 19
    -0.003406187338563    -0.001901537098884    -0.000209926353499
     0.001901537098884    -0.001393955345546     0.001901537098883
    -0.000209926353499    -0.001901537098883    -0.003406187338562
1 20
    -0.003410827758025    -0.001901537098884     0.000212610675081
     0.001901537098884    -0.002823514105968    -0.001901537098884
     0.000207242031917     0.001901537098885    -0.003410827758025
1 21
    -0.146939415021451    -0.167255739012476     0.202562655300452
     0.167255739012475     0.062380286365197    -0.167255739012476
     0.202557286657288     0.167255739012475    -0.146939415021451
1 22
    -0.146934774601991    -0.167255739012475    -0.202559970978870
     0.167255739012476     0.063809845125617     0.167255739012477
    -0.202559970978870    -0.167255739012476    -0.146934774601992
1 23
    -0.003410827758025     0.001901537098884     0.000207242031917
    -0.001901537098884    -0.002823514105968     0.001901537098885
     0.000212610675081    -0.001901537098884    -0.003410827758025
1 24
    -0.003406187338563     0.001901537098884    -0.000209926353499
    -0.001901537098884    -0.001393955345546    -0.001901537098883
    -0.000209926353499     0.001901537098883    -0.003406187338562
1 25
    -0.146934774601995    -0.202559970978870     0.167255739012476
    -0.202559970978870    -0.146934774601994     0.167255739012477
    -0.167255739012475    -0.167255739012476     0.063809845125615
1 26
    -0.146939415021450     0.202557286657288     0.167255739012476
     0.202562655300451    -0.146939415021452    -0.167255739012475
    -0.167255739012476     0.167255739012476     0.062380286365194
1 27
    -0.146939415021451     0.202562655300451    -0.167255739012476
     0.202557286657288    -0.146939415021452     0.167255739012476
     0.167255739012476    -0.167255739012475     0.062380286365194
1 28
    -0.146934774601990    -0.202559970978869    -0.167255739012475
    -0.202559970978870    -0.146934774601989    -0.167255739012477
     0.167255739012476     0.167255739012477     0.063809845125619
1 29
    -0.003406187338563    -0.000209926353499    -0.001901537098884
    -0.000209926353499    -0.003406187338562    -0.001901537098885
     0.001901537098883     0.001901537098884    -0.001393955345545
1 30
    -0.003410827758026     0.000212610675080    -0.001901537098883
     0.000207242031918    -0.003410827758026     0.001901537098885
     0.001901537098884    -0.001901537098884    -0.002823514105968
1 31
    -0.003410827758027     0.000207242031918     0.001901537098884
     0.000212610675080    -0.003410827758026    -0.001901537098884
    -0.001901537098883     0.001901537098885    -0.002823514105968
1 32
    -0.003406187338563    -0.000209926353499     0.001901537098883
    -0.000209926353499    -0.003406187338561     0.001901537098884
    -0.001901537098884    -0.001901537098885    -0.001393955345545
1 33
     0.005098102523437     0.005096443260171     0.005096443260172
     0.005096443260171     0.005098102523438     0.005096443260172
     0.005096443260171     0.005096443260172     0.005098102523437
1 34
     0.003676926302174    -0.001607984695458    -0.001607984695459
    -0.001607984695457     0.004539887987473    -0.002642503894421
    -0.001607984695459    -0.002642503894419     0.004539887987473
1 35
     0.004539887987474    -0.001607984695458    -0.002642503894418
    -0.001607984695458     0.003676926302173    -0.001607984695458
    -0.002642503894419    -0.001607984695458     0.004539887987475
1 36
     0.002500824336673    -0.000559810698139     0.000295083855716
    -0.000559810698139     0.002500824336672     0.000295083855717
     0.000295083855716     0.000295083855716    -0.004344104153589
1 37
     0.004539887987473    -0.002642503894419    -0.001607984695458
    -0.002642503894420     0.004539887987473    -0.001607984695457
    -0.001607984695458    -0.001607984695458     0.003676926302172
1 38
     0.002500824336674     0.000295083855716    -0.000559810698139
     0.000295083855717    -0.004344104153587     0.000295083855716
    -0.000559810698139     0.000295083855718     0.002500824336674
1 39
    -0.004344104153586     0.000295083855716     0.000295083855715
     0.000295083855716     0.002500824336673    -0.000559810698140
     0.000295083855716    -0.000559810698139     0.002500824336674
1 40
    -3.495719257874963    -2.327450975972406    -2.327450975972405
    -2.327450975972408    -3.495719257874962    -2.327450975972405
    -2.327450975972405    -2.327450975972407    -3.495719257874962
1 41
    -0.003616531919098    -0.001292608378018    -0.001292608378019
    -0.001292608378019     0.002769370229122    -0.000086383909416
    -0.001292608378020    -0.000086383909415     0.002769370229121
1 42
    -3.496446830109451     2.328448500494708     2.328448500494709
     2.328448500494708    -3.495987803767410    -2.327924402761131
     2.328448500494708    -2.327924402761129    -3.495987803767408
1 43
     0.004539887987472     0.003166601627997     0.001083886961880
     0.003166601627997     0.004080861645430    -0.001607984695459
     0.001083886961881    -0.001607984695457     0.004135952644214
1 44
     0.002500824336673    -0.000819181589293     0.001083908431717
    -0.000819181589293    -0.003885077811545     0.000295083855716
     0.001083908431716     0.000295083855716     0.002041797994632
1 45
     0.004539887987472     0.001083886961879     0.003166601627998
     0.001083886961880     0.004135952644214    -0.001607984695455
     0.003166601627997    -0.001607984695456     0.004080861645431
1 46
     0.002500824336674     0.001083908431717    -0.000819181589294
     0.001083908431716     0.002041797994633     0.000295083855715
    -0.000819181589293     0.000295083855714    -0.003885077811545
1 47
     0.004370530288951    -0.004098918737869    -0.004098918737869
    -0.004098918737867     0.004829556630991     0.004623016471447
    -0.004098918737868     0.004623016471447     0.004829556630991
1 48
     0.004404498536659     0.000610460173155     0.000610460173155
     0.000610460173155     0.004808433879918    -0.002169077105694
     0.000610460173155    -0.002169077105694     0.004808433879918
1 49
     0.002769370229121    -0.001292608378019    -0.000086383909415
    -0.001292608378018    -0.003616531919096    -0.001292608378019
    -0.000086383909415    -0.001292608378020     0.002769370229121
1 50
     0.004080861645430     0.003166601627998    -0.001607984695458
     0.003166601627998     0.004539887987471     0.001083886961882
    -0.001607984695458     0.001083886961880     0.004135952644213
1 51
    -3.495987803767409     2.328448500494708    -2.327924402761130
     2.328448500494708    -3.496446830109450     2.328448500494710
    -2.327924402761131     2.328448500494709    -3.495987803767408
1 52
    -0.003885077811545    -0.000819181589295     0.000295083855716
    -0.000819181589294     0.002500824336674     0.001083908431717
     0.000295083855718     0.001083908431715     0.002041797994632
1 53
     0.004135952644213     0.001083886961879    -0.001607984695457
     0.001083886961880     0.004539887987471     0.003166601627997
    -0.001607984695456     0.003166601627998     0.004080861645429
1 54
     0.004829556630993    -0.004098918737869     0.004623016471448
    -0.004098918737869     0.004370530288951    -0.004098918737869
     0.004623016471447    -0.004098918737869     0.004829556630993
1 55
     0.002041797994633     0.001083908431717     0.000295083855715
     0.001083908431716     0.002500824336674    -0.000819181589295
     0.000295083855715    -0.000819181589295    -0.003885077811545
1 56
     0.004808433879918     0.000610460173155    -0.002169077105695
     0.000610460173156     0.004404498536660     0.000610460173154
    -0.002169077105694     0.000610460173154     0.004808433879918
1 57
     0.002769370229120    -0.000086383909415    -0.001292608378018
    -0.000086383909415     0.002769370229121    -0.001292608378019
    -0.001292608378019    -0.001292608378020    -0.003616531919098
1 58
     0.004080861645432    -0.001607984695458     0.003166601627998
    -0.001607984695457     0.004135952644213     0.001083886961881
     0.003166601627998     0.001083886961879     0.004539887987473
1 59
     0.004135952644214    -0.001607984695457     0.001083886961880
    -0.001607984695456     0.004080861645429     0.003166601627998
     0.001083886961881     0.003166601627998     0.004539887987471
1 60
     0.004829556630992     0.004623016471447    -0.004098918737869
     0.004623016471446     0.004829556630993    -0.004098918737868
    -0.004098918737869    -0.004098918737869     0.004370530288950
1 61
    -3.495987803767410    -2.327924402761130     2.328448500494708
    -2.327924402761132    -3.495987803767409     2.328448500494708
     2.328448500494708     2.328448500494708    -3.496446830109450
1 62
    -0.003885077811545     0.000295083855716    -0.000819181589295
     0.000295083855716     0.002041797994633     0.001083908431717
    -0.000819181589295     0.001083908431717     0.002500824336675
1 63
     0.002041797994632     0.000295083855716     0.001083908431717
     0.000295083855717    -0.003885077811545    -0.000819181589294
     0.001083908431716    -0.000819181589295     0.002500824336675
1 64
     0.004808433879918    -0.002169077105696     0.000610460173155
    -0.002169077105695     0.004808433879918     0.000610460173154
     0.000610460173154     0.000610460173155     0.004404498536659
2 1
     0.003272849196247     0.000822077778027     0.000822077778027
     0.000822077778027    -0.003144150197964    -0.000822077778027
     0.000822077778027    -0.000822077778027    -0.003144150197962
2 2
    14.888437620233228    -0.000822077778027    -0.000822077778027
    -0.000822077778027    14.888437620233232    -0.000822077778027
    -0.000822077778027    -0.000822077778027    14.888437620233228
2 3
    -0.000971378185163    -0.000822077778027     0.000822077778027
    -0.000822077778027    -0.000971378185164     0.000822077778028
     0.000822077778027     0.000822077778028     0.000818614628189
2 4
    -0.003144150197962     0.000822077778027    -0.000822077778027
     0.000822077778027     0.003272849196248     0.000822077778029
    -0.000822077778027     0.000822077778029    -0.003144150197966
2 5
    -0.000971378185163     0.000822077778028    -0.000822077778027
     0.000822077778028     0.000818614628184     0.000822077778026
    -0.000822077778027     0.000822077778026    -0.000971378185167
2 6
    -0.003144150197962    -0.000822077778028     0.000822077778027
    -0.000822077778028    -0.003144150197964     0.000822077778031
     0.000822077778027     0.000822077778031     0.003272849196251
2 7
    -0.016650898271309    -0.000822077778028    -0.000822077778027
    -0.000822077778028    -0.016650898271305    -0.000822077778025
    -0.000822077778027    -0.000822077778025    -0.016650898271309
2 8
     0.000818614628186     0.000822077778028     0.000822077778027
     0.000822077778028    -0.000971378185164    -0.000822077778028
     0.000822077778027    -0.000822077778027    -0.000971378185163
2 9
    -0.001393955345546     0.001901537098884     0.001901537098884
    -0.001901537098884    -0.003406187338563    -0.000209926353500
    -0.001901537098884    -0.000209926353499    -0.003406187338564
2 10
     0.063809845125613    -0.167255739012475    -0.167255739012476
     0.167255739012475    -0.146934774601995    -0.202559970978870
     0.167255739012475    -0.202559970978872    -0.146934774601995
2 11
    -0.002823514105967     0.001901537098884    -0.001901537098884
    -0.001901537098884    -0.003410827758024     0.000212610675082
     0.001901537098884     0.000207242031916    -0.003410827758025
2 12
     0.062380286365196    -0.167255739012475     0.167255739012476
     0.167255739012475    -0.146939415021453     0.202557286657287
    -0.167255739012475     0.202562655300452    -0.146939415021452
2 13
    -0.002823514105967    -0.001901537098884     0.001901537098884
     0.001901537098884    -0.003410827758024     0.000207242031916
    -0.001901537098884     0.000212610675082    -0.003410827758025
2 14
     0.062380286365197     0.167255739012476    -0.167255739012476
    -0.167255739012475    -0.146939415021452     0.202562655300452
     0.167255739012476     0.202557286657287    -0.146939415021452
2 15
    -0.001393955345546    -0.001901537098884    -0.001901537098884
     0.001901537098884    -0.003406187338563    -0.000209926353499
     0.001901537098884    -0.000209926353500    -0.003406187338564
2 16
     0.063809845125618     0.167255739012475     0.167255739012475
    -0.167255739012475    -0.146934774601990    -0.202559970978872
    -0.167255739012476    -0.202559970978870    -0.146934774601990
2 17
    -0.146939415021451     0.167255739012475     0.202557286657288
    -0.167255739012476     0.062380286365197     0.167255739012475
     0.202562655300452    -0.167255739012476    -0.146939415021452
2 18
    -0.146934774601996     0.167255739012475    -0.202559970978870
    -0.167255739012475     0.063809845125612    -0.167255739012476
    -0.202559970978870     0.167255739012476    -0.146934774601997
2 19
    -0.003410827758025    -0.001901537098884     0.000212610675081
     0.001901537098884    -0.002823514105968    -0.001901537098884
     0.000207242031917     0.001901537098885    -0.003410827758025
2 20
    -0.003406187338563    -0.001901537098884    -0.000209926353499
     0.001901537098884    -0.001393955345546     0.001901537098883
    -0.000209926353499    -0.001901537098883    -0.003406187338562
2 21
    -0.146934774601991    -0.167255739012475    -0.202559970978870
     0.167255739012475     0.063809845125617     0.167255739012477
    -0.202559970978870    -0.167255739012476    -0.146934774601992
2 22
    -0.146939415021451    -0.167255739012476     0.202562655300452
     0.167255739012475     0.062380286365197    -0.167255739012476
     0.202557286657288     0.167255739012475    -0.146939415021451
2 23
    -0.003406187338563     0.001901537098884    -0.000209926353499
    -0.001901537098884    -0.001393955345546    -0.001901537098883
    -0.000209926353499     0.001901537098883    -0.003406187338562
2 24
    -0.003410827758025     0.001901537098884     0.000207242031917
    -0.001901537098884    -0.002823514105968     0.001901537098885
     0.000212610675081    -0.001901537098884    -0.003410827758025
2 25
    -0.146939415021450     0.202557286657288     0.167255739012476
     0.202562655300451    -0.146939415021452    -0.167255739012475
    -0.167255739012476     0.167255739012476     0.062380286365194
2 26
    -0.146934774601995    -0.202559970978870     0.167255739012476
    -0.202559970978869    -0.146934774601994     0.167255739012477
    -0.167255739012475    -0.167255739012476     0.063809845125615
2 27
    -0.146934774601990    -0.202559970978869    -0.167255739012475
    -0.202559970978870    -0.146934774601989    -0.167255739012477
     0.167255739012476     0.167255739012477     0.063809845125619
2 28
    -0.146939415021451     0.202562655300451    -0.167255739012476
     0.202557286657288    -0.146939415021452     0.167255739012476
     0.167255739012476    -0.167255739012475     0.062380286365194
2 29
    -0.003410827758026     0.000212610675080    -0.001901537098883
     0.000207242031918    -0.003410827758026     0.001901537098885
     0.001901537098884    -0.001901537098884    -0.002823514105968
2 30
    -0.003406187338563    -0.000209926353499    -0.001901537098884
    -0.000209926353499    -0.003406187338562    -0.001901537098885
     0.001901537098883     0.001901537098884    -0.001393955345545
2 31
    -0.003406187338563    -0.000209926353499     0.001901537098883
    -0.000209926353499    -0.003406187338561     0.001901537098884
    -0.001901537098884    -0.001901537098885    -0.001393955345545
2 32
    -0.003410827758027     0.000207242031918     0.001901537098884
     0.000212610675080    -0.003410827758026    -0.001901537098884
    -0.001901537098883     0.001901537098885    -0.002823514105968
2 33
     0.003676926302174    -0.001607984695458    -0.001607984695459
    -0.001607984695457     0.004539887987473    -0.002642503894421
    -0.001607984695459    -0.002642503894419     0.004539887987473
2 34
     0.005098102523437     0.005096443260171     0.005096443260172
     0.005096443260171     0.005098102523438     0.005096443260172
     0.005096443260171     0.005096443260172     0.005098102523437
2 35
     0.002500824336673    -0.000559810698139     0.000295083855716
    -0.000559810698139     0.002500824336672     0.000295083855717
     0.000295083855716     0.000295083855716    -0.004344104153589
2 36
     0.004539887987474    -0.001607984695458    -0.002642503894418
    -0.001607984695458     0.003676926302173    -0.001607984695458
    -0.002642503894419    -0.001607984695458     0.004539887987475
2 37
     0.002500824336674     0.000295083855716    -0.000559810698139
     0.000295083855717    -0.004344104153587     0.000295083855716
    -0.000559810698139     0.000295083855718     0.002500824336674
2 38
     0.004539887987473    -0.002642503894419    -0.001607984695458
    -0.002642503894420     0.004539887987473    -0.001607984695457
    -0.001607984695458    -0.001607984695458     0.003676926302172
2 39
    -3.495719257874963    -2.327450975972405    -2.327450975972405
    -2.327450975972407    -3.495719257874961    -2.327450975972404
    -2.327450975972405    -2.327450975972406    -3.495719257874961
2 40
    -0.004344104153586     0.000295083855716     0.000295083855715
     0.000295083855716     0.002500824336673    -0.000559810698140
     0.000295083855716    -0.000559810698139     0.002500824336674
2 41
    -3.496446830109450     2.328448500494708     2.328448500494708
     2.328448500494707    -3.495987803767409    -2.327924402761130
     2.328448500494708    -2.327924402761128    -3.495987803767407
2 42
    -0.003616531919098    -0.001292608378018    -0.001292608378019
    -0.001292608378019     0.002769370229122    -0.000086383909416
    -0.001292608378020    -0.000086383909415     0.002769370229121
2 43
     0.002500824336673    -0.000819181589293     0.001083908431717
    -0.000819181589293    -0.003885077811545     0.000295083855716
     0.001083908431716     0.000295083855716     0.002041797994632
2 44
     0.004539887987472     0.003166601627997     0.001083886961880
     0.003166601627997     0.004080861645430    -0.001607984695459
     0.001083886961881    -0.001607984695457     0.004135952644214
2 45
     0.002500824336674     0.001083908431717    -0.000819181589294
     0.001083908431716     0.002041797994633     0.000295083855715
    -0.000819181589293     0.000295083855714    -0.003885077811545
2 46
     0.004539887987472     0.001083886961879     0.003166601627998
     0.001083886961880     0.004135952644214    -0.001607984695455
     0.003166601627997    -0.001607984695456     0.004080861645431
2 47
     0.004404498536659     0.000610460173155     0.000610460173155
     0.000610460173155     0.004808433879918    -0.002169077105694
     0.000610460173155    -0.002169077105694     0.004808433879918
2 48
     0.004370530288951    -0.004098918737869    -0.004098918737869
    -0.004098918737867     0.004829556630991     0.004623016471447
    -0.004098918737868     0.004623016471447     0.004829556630991
2 49
     0.004080861645430     0.003166601627998    -0.001607984695458
     0.003166601627998     0.004539887987471     0.001083886961882
    -0.001607984695458     0.001083886961880     0.004135952644213
2 50
     0.002769370229121    -0.001292608378019    -0.000086383909415
    -0.001292608378018    -0.003616531919096    -0.001292608378019
    -0.000086383909415    -0.001292608378020     0.002769370229121
2 51
    -0.003885077811545    -0.000819181589295     0.000295083855716
    -0.000819181589294     0.002500824336674     0.001083908431717
     0.000295083855718     0.001083908431715     0.002041797994632
2 52
    -3.495987803767409     2.328448500494708    -2.327924402761129
     2.328448500494708    -3.496446830109449     2.328448500494709
    -2.327924402761131     2.328448500494708    -3.495987803767407
2 53
     0.004829556630993    -0.004098918737869     0.004623016471448
    -0.004098918737869     0.004370530288951    -0.004098918737869
     0.004623016471447    -0.004098918737869     0.004829556630993
2 54
     0.004135952644213     0.001083886961879    -0.001607984695457
     0.001083886961880     0.004539887987471     0.003166601627997
    -0.001607984695456     0.003166601627998     0.004080861645429
2 55
     0.004808433879918     0.000610460173155    -0.002169077105695
     0.000610460173156     0.004404498536660     0.000610460173154
    -0.002169077105694     0.000610460173154     0.004808433879918
2 56
     0.002041797994633     0.001083908431717     0.000295083855715
     0.001083908431716     0.002500824336674    -0.000819181589295
     0.000295083855715    -0.000819181589295    -0.003885077811545
2 57
     0.004080861645432    -0.001607984695458     0.003166601627998
    -0.001607984695457     0.004135952644213     0.001083886961881
     0.003166601627998     0.001083886961879     0.004539887987473
2 58
     0.002769370229120    -0.000086383909415    -0.001292608378018
    -0.000086383909415     0.002769370229121    -0.001292608378019
    -0.001292608378019    -0.001292608378020    -0.003616531919098
2 59
     0.004829556630992     0.004623016471447    -0.004098918737869
     0.004623016471446     0.004829556630993    -0.004098918737868
    -0.004098918737869    -0.004098918737869     0.004370530288950
2 60
     0.004135952644214    -0.001607984695457     0.001083886961880
    -0.001607984695456     0.004080861645429     0.003166601627998
     0.001083886961881     0.003166601627998     0.004539887987471
2 61
    -0.003885077811545     0.000295083855716    -0.000819181589295
     0.000295083855716     0.002041797994633     0.001083908431717
    -0.000819181589295     0.001083908431717     0.002500824336675
2 62
    -3.495987803767409    -2.327924402761130     2.328448500494708
    -2.327924402761131    -3.495987803767409     2.328448500494707
     2.328448500494708     2.328448500494707    -3.496446830109449
2 63
     0.004808433879918    -0.002169077105696     0.000610460173155
    -0.002169077105695     0.004808433879918     0.000610460173154
     0.000610460173154     0.000610460173155     0.004404498536659
2 64
     0.002041797994632     0.000295083855716     0.001083908431717
     0.000295083855717    -0.003885077811545    -0.000819181589294
     0.001083908431716    -0.000819181589295     0.002500824336675
3 1
    -0.003144150197962     0.000822077778027    -0.000822077778027
     0.000822077778027     0.003272849196248     0.000822077778029
    -0.000822077778027     0.000822077778029    -0.003144150197966
3 2
    -0.000971378185163    -0.000822077778027     0.000822077778027
    -0.000822077778027    -0.000971378185164     0.000822077778028
     0.000822077778027     0.000822077778028     0.000818614628189
3 3
    14.888437620233228    -0.000822077778027    -0.000822077778027
    -0.000822077778027    14.888437620233232    -0.000822077778027
    -0.000822077778027    -0.000822077778027    14.888437620233228
3 4
     0.003272849196247     0.000822077778027     0.000822077778027
     0.000822077778027    -0.003144150197964    -0.000822077778027
     0.000822077778027    -0.000822077778027    -0.003144150197962
3 5
     0.000818614628186     0.000822077778028     0.000822077778027
     0.000822077778028    -0.000971378185164    -0.000822077778028
     0.000822077778027    -0.000822077778027    -0.000971378185163
3 6
    -0.016650898271309    -0.000822077778028    -0.000822077778027
    -0.000822077778028    -0.016650898271305    -0.000822077778025
    -0.000822077778027    -0.000822077778025    -0.016650898271309
3 7
    -0.003144150197962    -0.000822077778028     0.000822077778027
    -0.000822077778028    -0.003144150197964     0.000822077778031
     0.000822077778027     0.000822077778031     0.003272849196251
3 8
    -0.000971378185163     0.000822077778028    -0.000822077778027
     0.000822077778028     0.000818614628184     0.000822077778026
    -0.000822077778027     0.000822077778026    -0.000971378185167
3 9
     0.062380286365196    -0.167255739012475     0.167255739012476
     0.167255739012475    -0.146939415021453     0.202557286657287
    -0.167255739012475     0.202562655300452    -0.146939415021452
3 10
    -0.002823514105967     0.001901537098884    -0.001901537098884
    -0.001901537098884    -0.003410827758024     0.000212610675082
     0.001901537098884     0.000207242031916    -0.003410827758025
3 11
     0.063809845125613    -0.167255739012475    -0.167255739012476
     0.167255739012475    -0.146934774601995    -0.202559970978870
     0.167255739012475    -0.202559970978872    -0.146934774601995
3 12
    -0.001393955345546     0.001901537098884     0.001901537098884
    -0.001901537098884    -0.003406187338563    -0.000209926353500
    -0.001901537098884    -0.000209926353499    -0.003406187338564
3 13
     0.063809845125618     0.167255739012475     0.167255739012475
    -0.167255739012475    -0.146934774601990    -0.202559970978872
    -0.167255739012476    -0.202559970978870    -0.146934774601990
3 14
    -0.001393955345546    -0.001901537098884    -0.001901537098884
     0.001901537098884    -0.003406187338563    -0.000209926353499
     0.001901537098884    -0.000209926353500    -0.003406187338564
3 15
     0.062380286365197     0.167255739012476    -0.167255739012476
    -0.167255739012475    -0.146939415021452     0.202562655300452
     0.167255739012476     0.202557286657287    -0.146939415021452
3 16
    -0.002823514105967    -0.001901537098884     0.001901537098884
     0.001901537098884    -0.003410827758024     0.000207242031916
    -0.001901537098884     0.000212610675082    -0.003410827758025
3 17
    -0.003406187338563    -0.001901537098884    -0.000209926353499
     0.001901537098884    -0.001393955345546     0.001901537098883
    -0.000209926353499    -0.001901537098883    -0.003406187338562
3 18
    -0.003410827758025    -0.001901537098884     0.000212610675081
     0.001901537098884    -0.002823514105968    -0.001901537098884