  64
   1   1
    15.316730650877044     0.000000000000000    -0.000000000000000
     0.000000000000000    15.316730650877046     0.000000000000000
     0.000000000000000    -0.000000000000000    15.316730650877046
   1   2
     0.000000000000089    -0.000000000000000    -0.000000000000000
    -0.000000000000000     0.000000000001066     0.000000000000000
     0.000000000000000    -0.000000000000000     0.000000000001066
   1   3
     0.000000000001066     0.000000000000000    -0.000000000000000
     0.000000000000000     0.000000000000089    -0.000000000000000
     0.000000000000000     0.000000000000000     0.000000000001066
   1   4
     0.000000000000666     0.000000000000000    -0.000000000000000
     0.000000000000000     0.000000000000666     0.000000000000000
     0.000000000000000    -0.000000000000000     0.000000000001688
   1   5
     0.000000000001066     0.000000000000000     0.000000000000000
     0.000000000000000     0.000000000001066    -0.000000000000000
    -0.000000000000000    -0.000000000000000     0.000000000000089
   1   6
     0.000000000000666     0.000000000000000    -0.000000000000000
     0.000000000000000     0.000000000001688    -0.000000000000000
    -0.000000000000000    -0.000000000000000     0.000000000000666
   1   7
     0.000000000001688     0.000000000000000    -0.000000000000000
     0.000000000000000     0.000000000000666    -0.000000000000000
     0.000000000000000    -0.000000000000000     0.000000000000666
   1   8
    -0.000000000000933     0.000000000000000     0.000000000000000
    -0.000000000000000    -0.000000000000933     0.000000000000000
    -0.000000000000000     0.000000000000000    -0.000000000000933
   1   9
     0.058758877051730    -0.180531146701824    -0.180531146701824
     0.180529053739203    -0.137954162991065    -0.193808432522875
     0.180529053739203    -0.193808432522875    -0.137954162991065
   1  10
    -0.000000000000394     0.000000000000022     0.000000000000022
    -0.000000000000244     0.000000000001235    -0.000000000000303
    -0.000000000000244    -0.000000000000303     0.000000000001235
   1  11
     0.058758877051730    -0.180531146701824     0.180531146701824
     0.180529053739203    -0.137954162991065     0.193808432522875
    -0.180529053739203     0.193808432522875    -0.137954162991065
   1  12
    -0.000000000000394     0.000000000000022    -0.000000000000022
    -0.000000000000244     0.000000000001235     0.000000000000303
     0.000000000000244     0.000000000000303     0.000000000001235
   1  13
     0.058758877051730     0.180531146701824    -0.180531146701824
    -0.180529053739203    -0.137954162991065     0.193808432522875
     0.180529053739203     0.193808432522875    -0.137954162991065
   1  14
    -0.000000000000394    -0.000000000000022     0.000000000000022
     0.000000000000244     0.000000000001235     0.000000000000303
    -0.000000000000244     0.000000000000303     0.000000000001235
   1  15
     0.058758877051730     0.180531146701824     0.180531146701824
    -0.180529053739203    -0.137954162991065    -0.193808432522875
    -0.180529053739203    -0.193808432522875    -0.137954162991065
   1  16
    -0.000000000000394    -0.000000000000022    -0.000000000000022
     0.000000000000244     0.000000000001235    -0.000000000000303
     0.000000000000244    -0.000000000000303     0.000000000001235
   1  17
    -0.137954162991065     0.180529053739203    -0.193808432522875
    -0.180531146701824     0.058758877051730    -0.180531146701824
    -0.193808432522875     0.180529053739203    -0.137954162991065
   1  18
    -0.137954162991065     0.180529053739203     0.193808432522875
    -0.180531146701824     0.058758877051730     0.180531146701824
     0.193808432522875    -0.180529053739203    -0.137954162991065
   1  19
     0.000000000001235    -0.000000000000244    -0.000000000000303
     0.000000000000022    -0.000000000000394     0.000000000000022
    -0.000000000000303    -0.000000000000244     0.000000000001235
   1  20
     0.000000000001235    -0.000000000000244     0.000000000000303
     0.000000000000022    -0.000000000000394    -0.000000000000022
     0.000000000000303     0.000000000000244     0.000000000001235
   1  21
    -0.137954162991065    -0.180529053739203     0.193808432522875
     0.180531146701824     0.058758877051730    -0.180531146701824
     0.193808432522875     0.180529053739203    -0.137954162991065
   1  22
    -0.137954162991065    -0.180529053739203    -0.193808432522875
     0.180531146701824     0.058758877051730     0.180531146701824
    -0.193808432522875    -0.180529053739203    -0.137954162991065
   1  23
     0.000000000001235     0.000000000000244     0.000000000000303
    -0.000000000000022    -0.000000000000394     0.000000000000022
     0.000000000000303    -0.000000000000244     0.000000000001235
   1  24
     0.000000000001235     0.000000000000244    -0.000000000000303
    -0.000000000000022    -0.000000000000394    -0.000000000000022
    -0.000000000000303     0.000000000000244     0.000000000001235
   1  25
    -0.137954162991065    -0.193808432522875     0.180529053739203
    -0.193808432522875    -0.137954162991065     0.180529053739203
    -0.180531146701824    -0.180531146701824     0.058758877051730
   1  26
    -0.137954162991065     0.193808432522875     0.180529053739203
     0.193808432522875    -0.137954162991065    -0.180529053739203
    -0.180531146701824     0.180531146701824     0.058758877051730
   1  27
    -0.137954162991065     0.193808432522875    -0.180529053739203
     0.193808432522875    -0.137954162991065     0.180529053739203
     0.180531146701824    -0.180531146701824     0.058758877051730
   1  28
    -0.137954162991065    -0.193808432522875    -0.180529053739203
    -0.193808432522875    -0.137954162991065    -0.180529053739203
     0.180531146701824     0.180531146701824     0.058758877051730
   1  29
     0.000000000001235    -0.000000000000303    -0.000000000000244
    -0.000000000000303     0.000000000001235    -0.000000000000244
     0.000000000000022     0.000000000000022    -0.000000000000394
   1  30
     0.000000000001235     0.000000000000303    -0.000000000000244
     0.000000000000303     0.000000000001235     0.000000000000244
     0.000000000000022    -0.000000000000022    -0.000000000000394
   1  31
     0.000000000001235     0.000000000000303     0.000000000000244
     0.000000000000303     0.000000000001235    -0.000000000000244
    -0.000000000000022     0.000000000000022    -0.000000000000394
   1  32
     0.000000000001235    -0.000000000000303     0.000000000000244
    -0.000000000000303     0.000000000001235     0.000000000000244
    -0.000000000000022    -0.000000000000022    -0.000000000000394
   1  33
     0.000000000000047     0.000000000000008     0.000000000000008
     0.000000000000008     0.000000000000047     0.000000000000008
     0.000000000000008     0.000000000000008     0.000000000000047
   1  34
    -0.000000000001716    -0.000000000000196    -0.000000000000196
    -0.000000000000180    -0.000000000000550    -0.000000000000281
    -0.000000000000180    -0.000000000000281    -0.000000000000550
   1  35
    -0.000000000000550    -0.000000000000180    -0.000000000000281
    -0.000000000000196    -0.000000000001716    -0.000000000000196
    -0.000000000000281    -0.000000000000180    -0.000000000000550
   1  36
    -0.000000000001121    -0.000000000000218     0.000000000000087
    -0.000000000000218    -0.000000000001121     0.000000000000087
    -0.000000000000320    -0.000000000000320    -0.000000000000532
   1  37
    -0.000000000000550    -0.000000000000281    -0.000000000000180
    -0.000000000000281    -0.000000000000550    -0.000000000000180
    -0.000000000000196    -0.000000000000196    -0.000000000001716
   1  38
    -0.000000000001121     0.000000000000087    -0.000000000000218
    -0.000000000000320    -0.000000000000532    -0.000000000000320
    -0.000000000000218     0.000000000000087    -0.000000000001121
   1  39
    -0.000000000000532    -0.000000000000320    -0.000000000000320
     0.000000000000087    -0.000000000001121    -0.000000000000218
     0.000000000000087    -0.000000000000218    -0.000000000001121
   1  40
    -3.612033213786819    -2.399373432618576    -2.399373432618576
    -2.399373432618576    -3.612033213786820    -2.399373432618576
    -2.399373432618576    -2.399373432618576    -3.612033213786821
   1  41
    -0.000000000000532     0.000000000000320     0.000000000000320
    -0.000000000000087    -0.000000000001121    -0.000000000000218
    -0.000000000000087    -0.000000000000218    -0.000000000001121
   1  42
    -3.612033213786820     2.399373432618576     2.399373432618576
     2.399373432618576    -3.612033213786821    -2.399373432618576
     2.399373432618576    -2.399373432618576    -3.612033213786820
   1  43
    -0.000000000000550     0.000000000000281     0.000000000000180
     0.000000000000281    -0.000000000000550    -0.000000000000180
     0.000000000000196    -0.000000000000196    -0.000000000001716
   1  44
    -0.000000000001121    -0.000000000000087     0.000000000000218
     0.000000000000320    -0.000000000000532    -0.000000000000320
     0.000000000000218     0.000000000000087    -0.000000000001121
   1  45
    -0.000000000000550     0.000000000000180     0.000000000000281
     0.000000000000196    -0.000000000001716    -0.000000000000196
     0.000000000000281    -0.000000000000180    -0.000000000000550
   1  46
    -0.000000000001121     0.000000000000218    -0.000000000000087
     0.000000000000218    -0.000000000001121     0.000000000000087
     0.000000000000320    -0.000000000000320    -0.000000000000532
   1  47
     0.000000000000047    -0.000000000000008    -0.000000000000008
    -0.000000000000008     0.000000000000047     0.000000000000008
    -0.000000000000008     0.000000000000008     0.000000000000047
   1  48
    -0.000000000001716     0.000000000000196     0.000000000000196
     0.000000000000180    -0.000000000000550    -0.000000000000281
     0.000000000000180    -0.000000000000281    -0.000000000000550
   1  49
    -0.000000000001121    -0.000000000000087    -0.000000000000218
     0.000000000000320    -0.000000000000532     0.000000000000320
    -0.000000000000218    -0.000000000000087    -0.000000000001121
   1  50
    -0.000000000000550     0.000000000000281    -0.000000000000180
     0.000000000000281    -0.000000000000550     0.000000000000180
    -0.000000000000196     0.000000000000196    -0.000000000001716
   1  51
    -3.612033213786820     2.399373432618576    -2.399373432618576
     2.399373432618576    -3.612033213786820     2.399373432618576
    -2.399373432618576     2.399373432618577    -3.612033213786821
   1  52
    -0.000000000000532     0.000000000000320    -0.000000000000320
    -0.000000000000087    -0.000000000001121     0.000000000000218
     0.000000000000087     0.000000000000218    -0.000000000001121
   1  53
    -0.000000000001716     0.000000000000196    -0.000000000000196
     0.000000000000180    -0.000000000000550     0.000000000000281
    -0.000000000000180     0.000000000000281    -0.000000000000550
   1  54
     0.000000000000047    -0.000000000000008     0.000000000000008
    -0.000000000000008     0.000000000000047    -0.000000000000008
     0.000000000000008    -0.000000000000008     0.000000000000047
   1  55
    -0.000000000001121     0.000000000000218     0.000000000000087
     0.000000000000218    -0.000000000001121    -0.000000000000087
    -0.000000000000320     0.000000000000320    -0.000000000000532
   1  56
    -0.000000000000550     0.000000000000180    -0.000000000000281
     0.000000000000196    -0.000000000001716     0.000000000000196
    -0.000000000000281     0.000000000000180    -0.000000000000550
   1  57
    -0.000000000001121    -0.000000000000218    -0.000000000000087
    -0.000000000000218    -0.000000000001121    -0.000000000000087
     0.000000000000320     0.000000000000320    -0.000000000000532
   1  58
    -0.000000000000550    -0.000000000000180     0.000000000000281
    -0.000000000000196    -0.000000000001716     0.000000000000196
     0.000000000000281     0.000000000000180    -0.000000000000550
   1  59
    -0.000000000001716    -0.000000000000196     0.000000000000196
    -0.000000000000180    -0.000000000000550     0.000000000000281
     0.000000000000180     0.000000000000281    -0.000000000000550
   1  60
     0.000000000000047     0.000000000000008    -0.000000000000008
     0.000000000000008     0.000000000000047    -0.000000000000008
    -0.000000000000008    -0.000000000000008     0.000000000000047
   1  61
    -3.612033213786819    -2.399373432618576     2.399373432618576
    -2.399373432618576    -3.612033213786820     2.399373432618576
     2.399373432618576     2.399373432618576    -3.612033213786821
   1  62
    -0.000000000000532    -0.000000000000320     0.000000000000320
     0.000000000000087    -0.000000000001121     0.000000000000218
    -0.000000000000087     0.000000000000218    -0.000000000001121
   1  63
    -0.000000000001121     0.000000000000087     0.000000000000218
    -0.000000000000320    -0.000000000000532     0.000000000000320
     0.000000000000218    -0.000000000000087    -0.000000000001121
   1  64
    -0.000000000000550    -0.000000000000281     0.000000000000180
    -0.000000000000281    -0.000000000000550     0.000000000000180
     0.000000000000196     0.000000000000196    -0.000000000001716
   2   1
     0.000000000000089     0.000000000000000     0.000000000000000
     0.000000000000000     0.000000000001066     0.000000000000000
     0.000000000000000     0.000000000000000     0.000000000001066
   2   2
    15.316730650877043     0.000000000000000     0.000000000000000
    -0.000000000000000    15.316730650877041     0.000000000000000
     0.000000000000000     0.000000000000000    15.316730650877043
   2   3
     0.000000000000666     0.000000000000000     0.000000000000000
     0.000000000000000     0.000000000000666     0.000000000000000
     0.000000000000000     0.000000000000000     0.000000000001688
   2   4
     0.000000000001066     0.000000000000000     0.000000000000000
     0.000000000000000     0.000000000000089    -0.000000000000000
     0.000000000000000    -0.000000000000000     0.000000000001066
   2   5
     0.000000000000666     0.000000000000000    -0.000000000000000
    -0.000000000000000     0.000000000001688     0.000000000000000
     0.000000000000000     0.000000000000000     0.000000000000666
   2   6
     0.000000000001066     0.000000000000000     0.000000000000000
    -0.000000000000000     0.000000000001066     0.000000000000000
     0.000000000000000     0.000000000000000     0.000000000000089
   2   7
    -0.000000000000933    -0.000000000000000     0.000000000000000
     0.000000000000000    -0.000000000000933     0.000000000000000
     0.000000000000000    -0.000000000000000    -0.000000000000933
   2   8
     0.000000000001688     0.000000000000000    -0.000000000000000
    -0.000000000000000     0.000000000000666     0.000000000000000
     0.000000000000000     0.000000000000000     0.000000000000666
   2   9
    -0.000000000000394     0.000000000000022     0.000000000000022
    -0.000000000000244     0.000000000001235    -0.000000000000303
    -0.000000000000244    -0.000000000000303     0.000000000001235
   2  10
     0.058758877051730    -0.180531146701824    -0.180531146701824
     0.180529053739203    -0.137954162991065    -0.193808432522875
     0.180529053739203    -0.193808432522875    -0.137954162991065
   2  11
    -0.000000000000394     0.000000000000022    -0.000000000000022
    -0.000000000000244     0.000000000001235     0.000000000000303
     0.000000000000244     0.000000000000303     0.000000000001235
   2  12
     0.058758877051730    -0.180531146701824     0.180531146701824
     0.180529053739203    -0.137954162991065     0.193808432522875
    -0.180529053739203     0.193808432522875    -0.137954162991065
   2  13
    -0.000000000000394    -0.000000000000022     0.000000000000022
     0.000000000000244     0.000000000001235     0.000000000000303
    -0.000000000000244     0.000000000000303     0.000000000001235
   2  14
     0.058758877051730     0.180531146701824    -0.180531146701824
    -0.180529053739203    -0.137954162991065     0.193808432522875
     0.180529053739203     0.193808432522875    -0.137954162991065
   2  15
    -0.000000000000394    -0.000000000000022    -0.000000000000022
     0.000000000000244     0.000000000001235    -0.000000000000303
     0.000000000000244    -0.000000000000303     0.000000000001235
   2  16
     0.058758877051730     0.180531146701824     0.180531146701824
    -0.180529053739203    -0.137954162991065    -0.193808432522875
    -0.180529053739203    -0.193808432522875    -0.137954162991065
   2  17
    -0.137954162991065     0.180529053739203     0.193808432522875
    -0.180531146701824     0.058758877051730     0.180531146701824
     0.193808432522875    -0.180529053739203    -0.137954162991065
   2  18
    -0.137954162991065     0.180529053739203    -0.193808432522875
    -0.180531146701824     0.058758877051730    -0.180531146701824
    -0.193808432522875     0.180529053739203    -0.137954162991065
   2  19
     0.000000000001235    -0.000000000000244     0.000000000000303
     0.000000000000022    -0.000000000000394    -0.000000000000022
     0.000000000000303     0.000000000000244     0.000000000001235
   2  20
     0.000000000001235    -0.000000000000244    -0.000000000000303
     0.000000000000022    -0.000000000000394     0.000000000000022
    -0.000000000000303    -0.000000000000244     0.000000000001235
   2  21
    -0.137954162991065    -0.180529053739203    -0.193808432522875
     0.180531146701824     0.058758877051730     0.180531146701824
    -0.193808432522875    -0.180529053739203    -0.137954162991065
   2  22
    -0.137954162991065    -0.180529053739203     0.193808432522875
     0.180531146701824     0.058758877051730    -0.180531146701824
     0.193808432522875     0.180529053739203    -0.137954162991065
   2  23
     0.000000000001235     0.000000000000244    -0.000000000000303
    -0.000000000000022    -0.000000000000394    -0.000000000000022
    -0.000000000000303     0.000000000000244     0.000000000001235
   2  24
     0.000000000001235     0.000000000000244     0.000000000000303
    -0.000000000000022    -0.000000000000394     0.000000000000022
     0.000000000000303    -0.000000000000244     0.000000000001235
   2  25
    -0.137954162991065     0.193808432522875     0.180529053739203
     0.193808432522875    -0.137954162991065    -0.180529053739203
    -0.180531146701824     0.180531146701824     0.058758877051730
   2  26
    -0.137954162991065    -0.193808432522875     0.180529053739203
    -0.193808432522875    -0.137954162991065     0.180529053739203
    -0.180531146701824    -0.180531146701824     0.058758877051730
   2  27
    -0.137954162991065    -0.193808432522875    -0.180529053739203
    -0.193808432522875    -0.137954162991065    -0.180529053739203
     0.180531146701824     0.180531146701824     0.058758877051730
   2  28
    -0.137954162991065     0.193808432522875    -0.180529053739203
     0.193808432522875    -0.137954162991065     0.180529053739203
     0.180531146701824    -0.180531146701824     0.058758877051730
   2  29
     0.000000000001235     0.000000000000303    -0.000000000000244
     0.000000000000303     0.000000000001235     0.000000000000244
     0.000000000000022    -0.000000000000022    -0.000000000000394
   2  30
     0.000000000001235    -0.000000000000303    -0.000000000000244
    -0.000000000000303     0.000000000001235    -0.000000000000244
     0.000000000000022     0.000000000000022    -0.000000000000394
   2  31
     0.000000000001235    -0.000000000000303     0.000000000000244
    -0.000000000000303     0.000000000001235     0.000000000000244
    -0.000000000000022    -0.000000000000022    -0.000000000000394
   2  32
     0.000000000001235     0.000000000000303     0.000000000000244
     0.000000000000303     0.000000000001235    -0.000000000000244
    -0.000000000000022     0.000000000000022    -0.000000000000394
   2  33
    -0.000000000001716    -0.000000000000196    -0.000000000000196
    -0.000000000000180    -0.000000000000550    -0.000000000000281
    -0.000000000000180    -0.000000000000281    -0.000000000000550
   2  34
     0.000000000000047     0.000000000000008     0.000000000000008
     0.000000000000008     0.000000000000047     0.000000000000008
     0.000000000000008     0.000000000000008     0.000000000000047
   2  35
    -0.000000000001121    -0.000000000000218     0.000000000000087
    -0.000000000000218    -0.000000000001121     0.000000000000087
    -0.000000000000320    -0.000000000000320    -0.000000000000532
   2  36
    -0.000000000000550    -0.000000000000180    -0.000000000000281
    -0.000000000000196    -0.000000000001716    -0.000000000000196
    -0.000000000000281    -0.000000000000180    -0.000000000000550
   2  37
    -0.000000000001121     0.000000000000087    -0.000000000000218
    -0.000000000000320    -0.000000000000532    -0.000000000000320
    -0.000000000000218     0.000000000000087    -0.000000000001121
   2  38
    -0.000000000000550    -0.000000000000281    -0.000000000000180
    -0.000000000000281    -0.000000000000550    -0.000000000000180
    -0.000000000000196    -0.000000000000196    -0.000000000001716
   2  39
    -3.612033213786820    -2.399373432618576    -2.399373432618576
    -2.399373432618576    -3.612033213786818    -2.399373432618575
    -2.399373432618576    -2.399373432618576    -3.612033213786819
   2  40
    -0.000000000000532    -0.000000000000320    -0.000000000000320
     0.000000000000087    -0.000000000001121    -0.000000000000218
     0.000000000000087    -0.000000000000218    -0.000000000001121
   2  41
    -3.612033213786820     2.399373432618576     2.399373432618576
     2.399373432618576    -3.612033213786818    -2.399373432618575
     2.399373432618576    -2.399373432618576    -3.612033213786819
   2  42
    -0.000000000000532     0.000000000000320     0.000000000000320
    -0.000000000000087    -0.000000000001121    -0.000000000000218
    -0.000000000000087    -0.000000000000218    -0.000000000001121
   2  43
    -0.000000000001121    -0.000000000000087     0.000000000000218
     0.000000000000320    -0.000000000000532    -0.000000000000320
     0.000000000000218     0.000000000000087    -0.000000000001121
   2  44
    -0.000000000000550     0.000000000000281     0.000000000000180
     0.000000000000281    -0.000000000000550    -0.000000000000180
     0.000000000000196    -0.000000000000196    -0.000000000001716
   2  45
    -0.000000000001121     0.000000000000218    -0.000000000000087
     0.000000000000218    -0.000000000001121     0.000000000000087
     0.000000000000320    -0.000000000000320    -0.000000000000532
   2  46
    -0.000000000000550     0.000000000000180     0.000000000000281
     0.000000000000196    -0.000000000001716    -0.000000000000196
     0.000000000000281    -0.000000000000180    -0.000000000000550
   2  47
    -0.000000000001716     0.000000000000196     0.000000000000196
     0.000000000000180    -0.000000000000550    -0.000000000000281
     0.000000000000180    -0.000000000000281    -0.000000000000550
   2  48
     0.000000000000047    -0.000000000000008    -0.000000000000008
    -0.000000000000008     0.000000000000047     0.000000000000008
    -0.000000000000008     0.000000000000008     0.000000000000047
   2  49
    -0.000000000000550     0.000000000000281    -0.000000000000180
     0.000000000000281    -0.000000000000550     0.000000000000180
    -0.000000000000196     0.000000000000196    -0.000000000001716
   2  50
    -0.000000000001121    -0.000000000000087    -0.000000000000218
     0.000000000000320    -0.000000000000532     0.000000000000320
    -0.000000000000218    -0.000000000000087    -0.000000000001121
   2  51
    -0.000000000000532     0.000000000000320    -0.000000000000320
    -0.000000000000087    -0.000000000001121     0.000000000000218
     0.000000000000087     0.000000000000218    -0.000000000001121
   2  52
    -3.612033213786819     2.399373432618576    -2.399373432618576
     2.399373432618576    -3.612033213786819     2.399373432618575
    -2.399373432618576     2.399373432618576    -3.612033213786820
   2  53
     0.000000000000047    -0.000000000000008     0.000000000000008
    -0.000000000000008     0.000000000000047    -0.000000000000008
     0.000000000000008    -0.000000000000008     0.000000000000047
   2  54
    -0.000000000001716     0.000000000000196    -0.000000000000196
     0.000000000000180    -0.000000000000550     0.000000000000281
    -0.000000000000180     0.000000000000281    -0.000000000000550
   2  55
    -0.000000000000550     0.000000000000180    -0.000000000000281
     0.000000000000196    -0.000000000001716     0.000000000000196
    -0.000000000000281     0.000000000000180    -0.000000000000550
   2  56
    -0.000000000001121     0.000000000000218     0.000000000000087
     0.000000000000218    -0.000000000001121    -0.000000000000087
    -0.000000000000320     0.000000000000320    -0.000000000000532
   2  57
    -0.000000000000550    -0.000000000000180     0.000000000000281
    -0.000000000000196    -0.000000000001716     0.000000000000196
     0.000000000000281     0.000000000000180    -0.000000000000550
   2  58
    -0.000000000001121    -0.000000000000218    -0.000000000000087
    -0.000000000000218    -0.000000000001121    -0.000000000000087
     0.000000000000320     0.000000000000320    -0.000000000000532
   2  59
     0.000000000000047     0.000000000000008    -0.000000000000008
     0.000000000000008     0.000000000000047    -0.000000000000008
    -0.000000000000008    -0.000000000000008     0.000000000000047
   2  60
    -0.000000000001716    -0.000000000000196     0.000000000000196
    -0.000000000000180    -0.000000000000550     0.000000000000281
     0.000000000000180     0.000000000000281    -0.000000000000550
   2  61
    -0.000000000000532    -0.000000000000320     0.000000000000320
     0.000000000000087    -0.000000000001121     0.000000000000218
    -0.000000000000087     0.000000000000218    -0.000000000001121
   2  62
    -3.612033213786820    -2.399373432618576     2.399373432618576
    -2.399373432618575    -3.612033213786819     2.399373432618575
     2.399373432618576     2.399373432618576    -3.612033213786819
   2  63
    -0.000000000000550    -0.000000000000281     0.000000000000180
    -0.000000000000281    -0.000000000000550     0.000000000000180
     0.000000000000196     0.000000000000196    -0.000000000001716
   2  64
    -0.000000000001121     0.000000000000087     0.000000000000218
    -0.000000000000320    -0.000000000000532     0.000000000000320
     0.000000000000218    -0.000000000000087    -0.000000000001121
   3   1
     0.000000000001066     0.000000000000000    -0.000000000000000
     0.000000000000000     0.000000000000089     0.000000000000000
    -0.000000000000000    -0.000000000000000     0.000000000001066
   3   2
     0.000000000000666     0.000000000000000    -0.000000000000000
    -0.000000000000000     0.000000000000666    -0.000000000000000
    -0.000000000000000     0.000000000000000     0.000000000001688
   3   3
    15.316730650877043     0.000000000000000    -0.000000000000000
     0.000000000000000    15.316730650877043    -0.000000000000000
    -0.000000000000000     0.000000000000000    15.316730650877041
   3   4
     0.000000000000089     0.000000000000000    -0.000000000000000
     0.000000000000000     0.000000000001066    -0.000000000000000
    -0.000000000000000     0.000000000000000     0.000000000001066
   3   5
     0.000000000001688     0.000000000000000    -0.000000000000000
     0.000000000000000     0.000000000000666     0.000000000000000
    -0.000000000000000     0.000000000000000     0.000000000000666
   3   6
    -0.000000000000933     0.000000000000000     0.000000000000000
     0.000000000000000    -0.000000000000933     0.000000000000000
    -0.000000000000000    -0.000000000000000    -0.000000000000933
   3   7
     0.000000000001066     0.000000000000000     0.000000000000000
     0.000000000000000     0.000000000001066    -0.000000000000000
     0.000000000000000     0.000000000000000     0.000000000000089
   3   8
     0.000000000000666     0.000000000000000    -0.000000000000000
    -0.000000000000000     0.000000000001688    -0.000000000000000
    -0.000000000000000     0.000000000000000     0.000000000000666
   3   9
     0.058758877051730    -0.180531146701824     0.180531146701824
     0.180529053739203    -0.137954162991065     0.193808432522875
    -0.180529053739203     0.193808432522875    -0.137954162991065
   3  10
    -0.000000000000394     0.000000000000022    -0.000000000000022
    -0.000000000000244     0.000000000001235     0.000000000000303
     0.000000000000244     0.000000000000303     0.000000000001235
   3  11
     0.058758877051730    -0.180531146701824    -0.180531146701824
     0.180529053739203    -0.137954162991065    -0.193808432522875
     0.180529053739203    -0.193808432522875    -0.137954162991065
   3  12
    -0.000000000000394     0.000000000000022     0.000000000000022
    -0.000000000000244     0.000000000001235    -0.000000000000303
    -0.000000000000244    -0.000000000000303     0.000000000001235
   3  13
     0.058758877051730     0.180531146701824     0.180531146701824
    -0.180529053739203    -0.137954162991065    -0.193808432522875
    -0.180529053739203    -0.193808432522875    -0.137954162991065
   3  14
    -0.000000000000394    -0.000000000000022    -0.000000000000022
     0.000000000000244     0.000000000001235    -0.000000000000303
     0.000000000000244    -0.000000000000303     0.000000000001235
   3  15
     0.058758877051730     0.180531146701824    -0.180531146701824
    -0.180529053739203    -0.137954162991065     0.193808432522875